/*--------------------------------*- C++ -*----------------------------------*\
  =========                 |
  \\      /  F ield         | OpenFOAM: The Open Source CFD Toolbox
   \\    /   O peration     | Website:  https://openfoam.org
    \\  /    A nd           | Version:  7
     \\/     M anipulation  |
\*---------------------------------------------------------------------------*/
FoamFile
{
    version     2.0;
    format      ascii;
    class       surfaceScalarField;
    location    "0.15";
    object      alphaPhi0.water;
}
// * * * * * * * * * * * * * * * * * * * * * * * * * * * * * * * * * * * * * //

dimensions      [0 3 -1 0 0 0 0];

internalField   nonuniform List<scalar> 
17936
(
-2.05416e-07
2.05416e-07
1.02496e-06
-1.23037e-06
2.84976e-06
-1.8248e-06
4.77925e-06
-1.92949e-06
6.67734e-06
-1.89808e-06
8.52046e-06
-1.84312e-06
1.03126e-05
-1.79215e-06
1.20635e-05
-1.75086e-06
1.37836e-05
-1.72013e-06
1.54833e-05
-1.69974e-06
1.71723e-05
-1.68893e-06
1.88593e-05
-1.68707e-06
2.05532e-05
-1.69384e-06
2.22625e-05
-1.70928e-06
2.39963e-05
-1.73384e-06
2.57647e-05
-1.76837e-06
2.75788e-05
-1.8141e-06
2.94514e-05
-1.87262e-06
3.13973e-05
-1.94589e-06
3.34334e-05
-2.03618e-06
3.55794e-05
-2.14593e-06
3.78568e-05
-2.27741e-06
4.02886e-05
-2.43186e-06
4.28968e-05
-2.60817e-06
4.5698e-05
-2.80119e-06
4.86971e-05
-2.99915e-06
5.18782e-05
-3.18104e-06
5.51916e-05
-3.3134e-06
5.85371e-05
-3.34549e-06
6.17554e-05
-3.21832e-06
6.46523e-05
-2.8969e-06
6.68878e-05
-2.23553e-06
6.77309e-05
-8.43077e-07
6.64999e-05
1.23098e-06
6.36277e-05
2.87225e-06
6.00604e-05
3.56724e-06
5.67534e-05
3.30699e-06
5.43023e-05
2.4511e-06
5.28431e-05
1.44587e-06
5.22975e-05
5.44486e-07
5.26634e-05
-3.68654e-07
4.95326e-05
-1.29253e-06
1.26584e-05
-8.45325e-07
1.43496e-06
7.70493e-07
5.22111e-07
3.80801e-07
1.27456e-07
5.97678e-07
-3.9226e-07
2.02016e-06
-2.65286e-06
3.71023e-06
-3.51487e-06
5.46237e-06
-3.68163e-06
7.20332e-06
-3.63903e-06
8.9116e-06
-3.55139e-06
1.05858e-05
-3.46637e-06
1.22318e-05
-3.39688e-06
1.38578e-05
-3.34605e-06
1.54721e-05
-3.31412e-06
1.70835e-05
-3.30032e-06
1.87003e-05
-3.30387e-06
2.03309e-05
-3.32444e-06
2.1984e-05
-3.3623e-06
2.36686e-05
-3.41845e-06
2.53948e-05
-3.49461e-06
2.71739e-05
-3.59318e-06
2.90185e-05
-3.71725e-06
3.09431e-05
-3.87051e-06
3.29641e-05
-4.05711e-06
3.50993e-05
-4.28115e-06
3.73678e-05
-4.54593e-06
3.97881e-05
-4.85217e-06
4.23756e-05
-5.19569e-06
4.51385e-05
-5.56402e-06
4.80714e-05
-5.9321e-06
5.11479e-05
-6.25748e-06
5.43101e-05
-6.47559e-06
5.74607e-05
-6.49608e-06
6.04541e-05
-6.21179e-06
6.30787e-05
-5.52148e-06
6.51448e-05
-4.30161e-06
6.67161e-05
-2.41437e-06
6.7794e-05
1.52993e-07
6.78392e-05
2.8271e-06
6.65844e-05
4.82204e-06
6.4281e-05
5.6103e-06
6.15386e-05
5.19318e-06
5.90812e-05
3.90195e-06
5.74423e-05
2.12768e-06
5.26122e-05
1.88231e-07
3.38512e-05
-1.65896e-06
6.41859e-06
-1.18661e-06
6.57155e-07
3.32645e-07
2.65561e-07
3.8336e-07
1.79583e-07
1.14249e-06
-1.53475e-06
2.65844e-06
-4.16882e-06
4.25316e-06
-5.10958e-06
5.87171e-06
-5.30017e-06
7.48344e-06
-5.25076e-06
9.07529e-06
-5.14324e-06
1.06452e-05
-5.03632e-06
1.2197e-05
-4.9486e-06
1.37367e-05
-4.88576e-06
1.52716e-05
-4.84905e-06
1.68094e-05
-4.83812e-06
1.83579e-05
-4.85239e-06
1.99253e-05
-4.89177e-06
2.15198e-05
-4.9569e-06
2.31507e-05
-5.04933e-06
2.48277e-05
-5.1716e-06
2.65617e-05
-5.3272e-06
2.8365e-05
-5.52048e-06
3.0251e-05
-5.75654e-06
3.22347e-05
-6.04081e-06
3.43319e-05
-6.37832e-06
3.65582e-05
-6.77229e-06
3.89278e-05
-7.22171e-06
4.145e-05
-7.71791e-06
4.41259e-05
-8.23997e-06
4.69428e-05
-8.74898e-06
4.98672e-05
-9.18189e-06
5.28378e-05
-9.44613e-06
5.57589e-05
-9.4172e-06
5.84946e-05
-8.94749e-06
6.08607e-05
-7.8876e-06
6.26639e-05
-6.10482e-06
6.3791e-05
-3.54148e-06
6.42587e-05
-3.14737e-07
6.40467e-05
3.03916e-06
6.31589e-05
5.70972e-06
6.17102e-05
7.05829e-06
6.00321e-05
6.87095e-06
5.86307e-05
5.30221e-06
5.75944e-05
2.81638e-06
4.10116e-05
1.80225e-07
9.81464e-06
-7.85069e-07
9.64018e-07
-2.22063e-07
9.60134e-08
2.55972e-08
1.67625e-09
1.42993e-07
7.16146e-08
1.4708e-06
-3.00554e-06
3.07976e-06
-5.77778e-06
4.62944e-06
-6.65926e-06
6.15762e-06
-6.82835e-06
7.67187e-06
-6.76501e-06
9.17084e-06
-6.64221e-06
1.0655e-05
-6.52046e-06
1.21277e-05
-6.42127e-06
1.35942e-05
-6.35234e-06
1.50612e-05
-6.31601e-06
1.65356e-05
-6.31251e-06
1.80249e-05
-6.34169e-06
1.95369e-05
-6.40379e-06
2.10799e-05
-6.49986e-06
2.26626e-05
-6.63203e-06
2.42945e-05
-6.80357e-06
2.59862e-05
-7.01886e-06
2.7749e-05
-7.28328e-06
2.95954e-05
-7.60295e-06
3.15387e-05
-7.98408e-06
3.35923e-05
-8.43191e-06
3.57687e-05
-8.94876e-06
3.8078e-05
-9.53095e-06
4.05246e-05
-1.01645e-05
4.31041e-05
-1.08195e-05
4.57985e-05
-1.14434e-05
4.85707e-05
-1.19541e-05
5.13587e-05
-1.22341e-05
5.40709e-05
-1.21294e-05
5.65822e-05
-1.14588e-05
5.8732e-05
-1.00374e-05
6.03442e-05
-7.71712e-06
6.1274e-05
-4.47131e-06
6.14862e-05
-5.26989e-07
6.10756e-05
3.44956e-06
6.0248e-05
6.53661e-06
5.92351e-05
8.0689e-06
5.82891e-05
7.81393e-06
5.76859e-05
5.90452e-06
5.02257e-05
2.52183e-06
2.11812e-05
1.26535e-08
1.27183e-06
-3.66619e-08
1.08651e-07
2.40721e-08
1.20004e-07
1.47256e-08
3.32115e-08
2.54275e-08
3.74468e-08
1.65118e-06
-4.65673e-06
3.33773e-06
-7.46433e-06
4.875e-06
-8.19653e-06
6.3485e-06
-8.30185e-06
7.79379e-06
-8.21031e-06
9.22149e-06
-8.06991e-06
1.06364e-05
-7.93536e-06
1.20432e-05
-7.82807e-06
1.34475e-05
-7.75663e-06
1.48556e-05
-7.72413e-06
1.62744e-05
-7.73135e-06
1.77112e-05
-7.77851e-06
1.91737e-05
-7.86622e-06
2.06697e-05
-7.99593e-06
2.2208e-05
-8.17027e-06
2.37975e-05
-8.3931e-06
2.54482e-05
-8.66953e-06
2.71706e-05
-9.00568e-06
2.89759e-05
-9.40828e-06
3.08757e-05
-9.88383e-06
3.28809e-05
-1.04372e-05
3.50012e-05
-1.1069e-05
3.72427e-05
-1.17724e-05
3.96058e-05
-1.25276e-05
4.20819e-05
-1.32956e-05
4.46496e-05
-1.40111e-05
4.72703e-05
-1.45747e-05
4.98839e-05
-1.48477e-05
5.24057e-05
-1.46513e-05
5.47241e-05
-1.37771e-05
5.67006e-05
-1.20141e-05
5.81807e-05
-9.19729e-06
5.90196e-05
-5.31058e-06
5.91646e-05
-6.72825e-07
5.87431e-05
3.86988e-06
5.80562e-05
7.22052e-06
5.74057e-05
8.70705e-06
5.69837e-05
8.19431e-06
5.2697e-05
5.37079e-06
2.99081e-05
1.23613e-06
4.32114e-06
7.66118e-09
3.25314e-07
2.6529e-09
1.01953e-07
1.84725e-08
3.59194e-08
1.06983e-08
1.16029e-08
2.5096e-08
2.31728e-08
1.74247e-06
-6.39919e-06
3.47933e-06
-9.20119e-06
5.01927e-06
-9.73647e-06
6.46341e-06
-9.74599e-06
7.86313e-06
-9.61003e-06
9.23857e-06
-9.44536e-06
1.05994e-05
-9.29615e-06
1.19525e-05
-9.18118e-06
1.33045e-05
-9.10864e-06
1.46622e-05
-9.0818e-06
1.60325e-05
-9.10172e-06
1.74229e-05
-9.16887e-06
1.88408e-05
-9.28411e-06
2.02941e-05
-9.44923e-06
2.17911e-05
-9.66723e-06
2.33404e-05
-9.94243e-06
2.49513e-05
-1.02804e-05
2.66333e-05
-1.06877e-05
2.83964e-05
-1.11713e-05
3.02501e-05
-1.17376e-05
3.22032e-05
-1.23903e-05
3.42623e-05
-1.31282e-05
3.64303e-05
-1.39404e-05
3.8704e-05
-1.48013e-05
4.10717e-05
-1.56633e-05
4.35099e-05
-1.64493e-05
4.59804e-05
-1.70451e-05
4.84271e-05
-1.72943e-05
5.07743e-05
-1.69985e-05
5.29257e-05
-1.59286e-05
5.47656e-05
-1.38541e-05
5.61629e-05
-1.05948e-05
5.69837e-05
-6.13286e-06
5.71609e-05
-8.60467e-07
5.68418e-05
4.18044e-06
5.6379e-05
7.67424e-06
5.60741e-05
8.95218e-06
5.32287e-05
7.413e-06
3.43636e-05
2.88577e-06
7.56088e-06
1.79856e-07
4.30709e-07
-1.81161e-08
1.11037e-07
7.41531e-10
4.23201e-08
5.14244e-09
1.34479e-08
5.72091e-09
2.46863e-09
1.18638e-08
1.29229e-08
1.77855e-06
-8.17775e-06
3.54159e-06
-1.09642e-05
5.08994e-06
-1.12848e-05
6.52151e-06
-1.11776e-05
7.89359e-06
-1.09821e-05
9.23266e-06
-1.07844e-05
1.05527e-05
-1.06162e-05
1.18632e-05
-1.04917e-05
1.31723e-05
-1.04177e-05
1.44875e-05
-1.0397e-05
1.58162e-05
-1.04304e-05
1.71659e-05
-1.05186e-05
1.85442e-05
-1.06624e-05
1.99588e-05
-1.08639e-05
2.14177e-05
-1.11262e-05
2.29293e-05
-1.1454e-05
2.45018e-05
-1.1853e-05
2.61441e-05
-1.23299e-05
2.78644e-05
-1.28916e-05
2.96706e-05
-1.35438e-05
3.15691e-05
-1.42888e-05
3.35638e-05
-1.51228e-05
3.56545e-05
-1.6031e-05
3.7835e-05
-1.69818e-05
4.00914e-05
-1.79196e-05
4.23992e-05
-1.87571e-05
4.47219e-05
-1.93677e-05
4.70086e-05
-1.9581e-05
4.91941e-05
-1.9184e-05
5.11987e-05
-1.79332e-05
5.29297e-05
-1.55851e-05
5.42816e-05
-1.19469e-05
5.513e-05
-6.99144e-06
5.54079e-05
-1.16442e-06
5.52758e-05
4.29256e-06
5.50215e-05
7.75367e-06
5.20696e-05
7.77579e-06
3.45116e-05
3.83294e-06
9.04259e-06
3.59634e-07
7.42286e-07
-4.29828e-08
1.4388e-07
-2.22388e-08
4.30699e-08
-2.91387e-09
1.18725e-08
1.9239e-09
3.14276e-09
2.98669e-09
1.60127e-10
5.85214e-09
6.38732e-09
1.77934e-06
-9.95709e-06
3.55219e-06
-1.27371e-05
5.11099e-06
-1.28436e-05
6.54082e-06
-1.26074e-05
7.89849e-06
-1.23398e-05
9.21396e-06
-1.20999e-05
1.05047e-05
-1.19069e-05
1.17826e-05
-1.17697e-05
1.30574e-05
-1.16925e-05
1.43376e-05
-1.16771e-05
1.56311e-05
-1.1724e-05
1.69458e-05
-1.18333e-05
1.82894e-05
-1.2006e-05
1.96695e-05
-1.2244e-05
2.10939e-05
-1.25506e-05
2.25704e-05
-1.29304e-05
2.41066e-05
-1.33892e-05
2.57102e-05
-1.39336e-05
2.73882e-05
-1.45697e-05
2.91466e-05
-1.53022e-05
3.09895e-05
-1.61317e-05
3.29182e-05
-1.70515e-05
3.49297e-05
-1.80426e-05
3.70156e-05
-1.90677e-05
3.91601e-05
-2.00641e-05
4.13386e-05
-2.09356e-05
4.35169e-05
-2.15458e-05
4.56503e-05
-2.17142e-05
4.76843e-05
-2.1218e-05
4.95559e-05
-1.98049e-05
5.1195e-05
-1.72243e-05
5.25221e-05
-1.32743e-05
5.34364e-05
-7.91714e-06
5.3793e-05
-1.63867e-06
5.32929e-05
3.99519e-06
4.8529e-05
6.11076e-06
3.03008e-05
3.35666e-06
8.17774e-06
2.66178e-07
1.06029e-06
-8.72703e-08
1.62846e-07
-3.12366e-08
4.56469e-08
-1.20259e-08
1.37687e-08
-1.53131e-09
3.38293e-09
1.00106e-09
6.87119e-10
1.49635e-09
-1.33819e-10
2.88472e-09
3.00005e-09
1.7584e-06
-1.17155e-05
3.53217e-06
-1.45108e-05
5.1023e-06
-1.44138e-05
6.53725e-06
-1.40423e-05
7.88996e-06
-1.36925e-05
9.19183e-06
-1.34018e-05
1.04628e-05
-1.31778e-05
1.17168e-05
-1.30237e-05
1.29652e-05
-1.29409e-05
1.42174e-05
-1.29293e-05
1.54821e-05
-1.29886e-05
1.67673e-05
-1.31186e-05
1.80811e-05
-1.33197e-05
1.9431e-05
-1.35938e-05
2.08245e-05
-1.39441e-05
2.22689e-05
-1.43748e-05
2.37713e-05
-1.48916e-05
2.53381e-05
-1.55004e-05
2.69751e-05
-1.62066e-05
2.86863e-05
-1.70134e-05
3.04739e-05
-1.79193e-05
3.23367e-05
-1.89143e-05
3.42694e-05
-1.99753e-05
3.62613e-05
-2.10596e-05
3.82954e-05
-2.20981e-05
4.03476e-05
-2.29876e-05
4.23861e-05
-2.35843e-05
4.43726e-05
-2.37006e-05
4.6263e-05
-2.31082e-05
4.80094e-05
-2.15513e-05
4.95624e-05
-1.87773e-05
5.08652e-05
-1.45772e-05
5.18582e-05
-8.91029e-06
5.11986e-05
-2.30551e-06
4.29263e-05
2.74994e-06
2.28669e-05
1.98998e-06
5.55123e-06
-7.97758e-09
9.81786e-07
-1.14251e-07
2.35738e-07
-3.74804e-08
5.02559e-08
-1.55782e-08
1.33793e-08
-2.88065e-09
3.94483e-09
-1.47114e-10
9.50626e-10
5.83952e-10
1.42086e-10
7.25378e-10
-8.00141e-11
1.36631e-09
1.37013e-09
1.72647e-06
-1.3442e-05
3.49778e-06
-1.62822e-05
5.07973e-06
-1.59957e-05
6.52393e-06
-1.54865e-05
7.87827e-06
-1.50468e-05
9.17421e-06
-1.46977e-05
1.04332e-05
-1.44368e-05
1.1671e-05
-1.42615e-05
1.29e-05
-1.41699e-05
1.41307e-05
-1.41601e-05
1.53725e-05
-1.42303e-05
1.66337e-05
-1.43798e-05
1.79225e-05
-1.46085e-05
1.92464e-05
-1.49178e-05
2.06128e-05
-1.53105e-05
2.20286e-05
-1.57906e-05
2.34999e-05
-1.6363e-05
2.50324e-05
-1.70329e-05
2.66304e-05
-1.78045e-05
2.82962e-05
-1.86793e-05
3.00301e-05
-1.96531e-05
3.18286e-05
-2.07128e-05
3.36844e-05
-2.18311e-05
3.55849e-05
-2.29602e-05
3.75124e-05
-2.40255e-05
3.9443e-05
-2.49181e-05
4.13478e-05
-2.5489e-05
4.3194e-05
-2.55466e-05
4.49465e-05
-2.48606e-05
4.6571e-05
-2.31757e-05
4.8034e-05
-2.02404e-05
4.92943e-05
-1.58376e-05
5.0322e-05
-9.93801e-06
4.35276e-05
-3.11148e-06
1.92624e-05
1.03332e-06
2.84792e-06
2.11451e-08
5.14672e-07
-5.45126e-09
1.8435e-07
-9.02878e-09
5.40062e-08
-5.08978e-09
1.39296e-08
-1.31925e-09
3.96194e-09
-6.97731e-12
1.10801e-09
2.32979e-10
2.82886e-10
2.99057e-10
3.95426e-11
3.4021e-10
-2.24341e-11
6.26975e-10
6.17239e-10
1.69255e-06
-1.51345e-05
3.4613e-06
-1.80509e-05
5.05521e-06
-1.75896e-05
6.511e-06
-1.69423e-05
7.87144e-06
-1.64073e-05
9.16729e-06
-1.59936e-05
1.04208e-05
-1.56903e-05
1.16488e-05
-1.54895e-05
1.28648e-05
-1.53859e-05
1.408e-05
-1.53753e-05
1.53044e-05
-1.54547e-05
1.65467e-05
-1.56221e-05
1.78152e-05
-1.5877e-05
1.91176e-05
-1.62201e-05
2.04608e-05
-1.66537e-05
2.18513e-05
-1.71811e-05
2.32948e-05
-1.78065e-05
2.47958e-05
-1.85339e-05
2.63573e-05
-1.9366e-05
2.79803e-05
-2.03023e-05
2.9663e-05
-2.13358e-05
3.14002e-05
-2.245e-05
3.31826e-05
-2.36134e-05
3.49962e-05
-2.47738e-05
3.68224e-05
-2.58517e-05
3.8638e-05
-2.67336e-05
4.04164e-05
-2.72673e-05
4.21294e-05
-2.72595e-05
4.37496e-05
-2.64807e-05
4.52527e-05
-2.46788e-05
4.66167e-05
-2.16045e-05
4.78081e-05
-1.7029e-05
4.87781e-05
-1.0908e-05
3.34021e-05
-3.91373e-06
4.22351e-06
3.06753e-07
3.9979e-07
1.08486e-07
1.25656e-07
3.31519e-08
4.0644e-08
7.56783e-09
1.26509e-08
1.8404e-09
3.49478e-09
7.45537e-10
1.0125e-09
3.71252e-10
3.2326e-10
1.67353e-10
9.81833e-11
1.39373e-10
2.2701e-11
1.55373e-10
4.16071e-13
2.80319e-10
2.74931e-10
1.66374e-06
-1.67982e-05
3.43126e-06
-1.98184e-05
5.03696e-06
-1.91953e-05
6.50547e-06
-1.84108e-05
7.87504e-06
-1.77768e-05
9.17522e-06
-1.72937e-05
1.04285e-05
-1.69435e-05
1.16523e-05
-1.67134e-05
1.28608e-05
-1.65945e-05
1.4066e-05
-1.65805e-05
1.52782e-05
-1.66668e-05
1.65065e-05
-1.68505e-05
1.77594e-05
-1.71298e-05
1.90443e-05
-1.7505e-05
2.03682e-05
-1.79776e-05
2.1737e-05
-1.855e-05
2.31559e-05
-1.92254e-05
2.46285e-05
-2.00065e-05
2.61566e-05
-2.08942e-05
2.77399e-05
-2.18855e-05
2.93749e-05
-2.29708e-05
3.10547e-05
-2.41299e-05
3.27685e-05
-2.53273e-05
3.45011e-05
-2.65064e-05
3.62331e-05
-2.75837e-05
3.79419e-05
-2.84424e-05
3.96027e-05
-2.8928e-05
4.11909e-05
-2.88477e-05
4.26847e-05
-2.79745e-05
4.40673e-05
-2.60613e-05
4.53234e-05
-2.28606e-05
4.6425e-05
-1.81306e-05
4.66506e-05
-1.13086e-05
2.20633e-05
-4.20945e-06
6.43273e-07
8.65188e-08
1.48558e-07
1.22283e-07
3.80698e-08
3.32415e-08
9.91805e-09
9.43157e-09
2.83465e-09
2.49909e-09
9.10994e-10
6.38245e-10
2.89046e-10
2.40779e-10
1.0546e-10
8.6953e-11
4.17125e-11
6.16769e-11
1.73091e-11
6.91125e-11
8.27944e-12
1.1997e-10
1.17449e-10
1.64446e-06
-1.84427e-05
3.41258e-06
-2.15866e-05
5.02963e-06
-2.08124e-05
6.51132e-06
-1.98925e-05
7.89205e-06
-1.91576e-05
9.19998e-06
-1.86017e-05
1.04573e-05
-1.82008e-05
1.16817e-05
-1.79378e-05
1.28878e-05
-1.78006e-05
1.40879e-05
-1.77806e-05
1.52927e-05
-1.78716e-05
1.65115e-05
-1.80693e-05
1.77529e-05
-1.83712e-05
1.90244e-05
-1.87766e-05
2.03327e-05
-1.92859e-05
2.16835e-05
-1.99007e-05
2.30811e-05
-2.0623e-05
2.45285e-05
-2.14539e-05
2.60265e-05
-2.23922e-05
2.75735e-05
-2.34325e-05
2.91647e-05
-2.45621e-05
3.0792e-05
-2.57571e-05
3.24429e-05
-2.69782e-05
3.41014e-05
-2.81649e-05
3.57477e-05
-2.923e-05
3.73592e-05
-3.00539e-05
3.89128e-05
-3.04815e-05
4.03862e-05
-3.03212e-05
4.17616e-05
-2.93499e-05
4.30266e-05
-2.73263e-05
4.4169e-05
-2.4003e-05
4.51701e-05
-1.91317e-05
3.76239e-05
-1.24514e-05
8.6485e-06
-3.56145e-06
2.1982e-07
1.64995e-08
4.63149e-08
6.27489e-08
1.17696e-08
2.16781e-08
2.54227e-09
6.91831e-09
7.23224e-10
1.81285e-09
2.6167e-10
4.21252e-10
9.4068e-11
1.17335e-10
3.94563e-11
4.04191e-11
2.07329e-11
2.5632e-11
1.26031e-11
2.9053e-11
8.34561e-12
4.70318e-11
4.63625e-11
1.63644e-06
-2.00792e-05
3.40683e-06
-2.33569e-05
5.03467e-06
-2.24402e-05
6.52968e-06
-2.13875e-05
7.92304e-06
-2.05509e-05
9.24142e-06
-1.99201e-05
1.05063e-05
-1.94658e-05
1.17355e-05
-1.91669e-05
1.29435e-05
-1.90086e-05
1.41429e-05
-1.898e-05
1.53446e-05
-1.90733e-05
1.65582e-05
-1.92829e-05
1.77921e-05
-1.96052e-05
1.9054e-05
-2.00384e-05
2.03502e-05
-2.05821e-05
2.16862e-05
-2.12367e-05
2.30657e-05
-2.20026e-05
2.44911e-05
-2.28793e-05
2.59624e-05
-2.38634e-05
2.74768e-05
-2.49469e-05
2.90286e-05
-2.61139e-05
3.06084e-05
-2.73369e-05
3.22029e-05
-2.85728e-05
3.37952e-05
-2.97572e-05
3.53652e-05
-3.07999e-05
3.68904e-05
-3.15792e-05
3.83485e-05
-3.19396e-05
3.97191e-05
-3.16917e-05
4.09864e-05
-3.06172e-05
4.21402e-05
-2.84801e-05
4.31695e-05
-2.50323e-05
4.40273e-05
-1.99897e-05
2.69497e-05
-1.24412e-05
1.29243e-06
-2.31309e-06
1.16545e-07
5.0398e-09
2.43781e-08
3.91252e-08
3.81854e-09
1.51979e-08
6.16851e-10
4.65141e-09
1.77269e-10
1.16362e-09
7.60628e-11
2.56633e-10
3.34549e-11
5.86781e-11
1.66359e-11
1.70872e-11
1.09804e-11
9.77847e-12
8.38862e-12
1.13142e-11
6.40399e-12
1.74726e-11
1.572e-11
1.63956e-06
-2.17187e-05
3.41243e-06
-2.51298e-05
5.05056e-06
-2.40783e-05
6.55897e-06
-2.28959e-05
7.96614e-06
-2.19581e-05
9.29719e-06
-2.12511e-05
1.05728e-05
-2.07413e-05
1.18102e-05
-2.04043e-05
1.3024e-05
-2.02224e-05
1.42267e-05
-2.01827e-05
1.54293e-05
-2.02759e-05
1.66415e-05
-2.0495e-05
1.78717e-05
-2.08354e-05
1.91273e-05
-2.12941e-05
2.04148e-05
-2.18696e-05
2.17391e-05
-2.2561e-05
2.31037e-05
-2.33672e-05
2.45102e-05
-2.42858e-05
2.5958e-05
-2.53112e-05
2.74436e-05
-2.64325e-05
2.89604e-05
-2.76307e-05
3.04982e-05
-2.88747e-05
3.20431e-05
-3.01177e-05
3.35778e-05
-3.12919e-05
3.50817e-05
-3.23038e-05
3.65326e-05
-3.30302e-05
3.79086e-05
-3.33156e-05
3.91901e-05
-3.29732e-05
4.03625e-05
-3.17895e-05
4.14155e-05
-2.95331e-05
4.2335e-05
-2.59518e-05
4.25177e-05
-2.01749e-05
1.56583e-05
-1.13535e-05
3.36595e-07
-1.14357e-06
5.86293e-08
6.02109e-09
1.04033e-08
2.71131e-08
1.23268e-09
1.10255e-08
1.11543e-10
3.13566e-09
3.31416e-11
7.36422e-10
2.25658e-11
1.53401e-10
1.22952e-11
3.13192e-11
7.28506e-12
6.64803e-12
5.77543e-12
3.20096e-12
5.25675e-12
3.81811e-12
4.55479e-12
5.96438e-12
5.61522e-12
1.64794e-06
-2.33666e-05
3.42423e-06
-2.69061e-05
5.07208e-06
-2.57262e-05
6.59364e-06
-2.44175e-05
8.01516e-06
-2.33796e-05
9.36035e-06
-2.25963e-05
1.06489e-05
-2.20299e-05
1.18974e-05
-2.16528e-05
1.31201e-05
-2.14451e-05
1.43295e-05
-2.13921e-05
1.55363e-05
-2.14828e-05
1.67504e-05
-2.17091e-05
1.798e-05
-2.2065e-05
1.92325e-05
-2.25466e-05
2.05141e-05
-2.31511e-05
2.18294e-05
-2.38763e-05
2.31816e-05
-2.47194e-05
2.45719e-05
-2.56761e-05
2.59991e-05
-2.67384e-05
2.74593e-05
-2.78927e-05
2.89453e-05
-2.91166e-05
3.04464e-05
-3.03759e-05
3.19485e-05
-3.16198e-05
3.3434e-05
-3.27774e-05
3.48825e-05
-3.37522e-05
3.62717e-05
-3.44194e-05
3.758e-05
-3.46238e-05
3.87879e-05
-3.41812e-05
3.98815e-05
-3.28831e-05
4.08453e-05
-3.0497e-05
4.16462e-05
-2.67515e-05
3.61546e-05
-2.04392e-05
5.95118e-06
-8.68171e-06
1.68371e-07
-6.07887e-07
2.10469e-08
1.05608e-08
3.85689e-09
2.14298e-08
2.14183e-10
7.95524e-09
-4.22204e-11
2.08589e-09
-8.39579e-12
4.58968e-10
4.54503e-12
9.01482e-11
3.55946e-12
1.6388e-11
2.7143e-12
3.62414e-12
2.56158e-12
1.67956e-12
2.67077e-12
1.91953e-12
2.60582e-12
3.14162e-12
3.31312e-12
-1.13239e-42
1.93727e-43
1.20512e-40
-3.6224e-40
1.4838e-38
-2.74592e-38
3.00691e-38
-1.68024e-37
2.97659e-39
-9.42066e-39
1.27792e-40
-6.96658e-40
9.54169e-42
-2.45842e-41
5.10644e-43
-2.45438e-42
1.9683e-44
-1.00531e-43
5.80934e-46
-2.28052e-45
1.15962e-47
-2.99077e-47
4.73466e-49
-1.26661e-49
3.355e-50
1.6164e-51
1.54502e-51
2.39728e-52
6.62632e-53
1.70503e-53
2.88268e-54
9.7779e-55
1.21463e-55
5.04296e-56
4.85472e-57
2.40119e-57
1.8336e-58
1.06436e-58
6.52374e-60
4.40132e-60
2.17727e-61
1.70057e-61
6.78479e-63
6.13703e-63
1.96399e-64
2.06411e-64
5.24972e-66
6.45353e-66
1.28671e-67
1.8684e-67
2.86723e-69
4.98472e-69
5.74766e-71
1.21751e-70
1.02289e-72
2.6983e-72
1.58912e-74
5.36273e-74
2.10774e-76
9.42734e-76
2.3164e-78
1.43693e-77
2.02118e-80
1.85074e-79
1.314e-82
1.93948e-81
5.73959e-85
1.56304e-83
1.39554e-87
8.804e-86
1.23464e-90
2.87683e-88
9.97143e-92
3.21854e-91
1.16556e-93
1.0605e-45
5.66366e-44
6.94143e-38
-1.76528e-37
2.53607e-36
-7.74635e-36
3.80659e-36
-8.39339e-36
4.7356e-37
-2.04844e-36
1.72043e-38
-1.43296e-37
1.04576e-39
-4.92926e-39
5.49436e-41
-2.57415e-40
2.07699e-42
-1.07745e-41
5.8909e-44
-2.43986e-43
1.26162e-45
-3.1877e-45
6.4969e-47
-2.19607e-47
4.02647e-48
7.28365e-49
1.73527e-49
1.06096e-49
7.22289e-51
7.32431e-51
3.08117e-52
4.12275e-52
1.26982e-53
2.08688e-53
4.96936e-55
9.73711e-55
1.84144e-56
4.22933e-56
6.43788e-58
1.71617e-57
2.11378e-59
6.51339e-59
6.48572e-61
2.31065e-60
1.84969e-62
7.64524e-62
4.87309e-64
2.35207e-63
1.17751e-65
6.70106e-65
2.5875e-67
1.75883e-66
5.11749e-69
4.22417e-68
8.99392e-71
9.20367e-70
1.38218e-72
1.79884e-71
1.81872e-74
3.11066e-73
1.9927e-76
4.67232e-75
1.74839e-78
5.94658e-77
1.16093e-80
6.19347e-79
5.34583e-83
5.01276e-81
1.47678e-85
2.90129e-83
1.87017e-88
1.03602e-85
1.37536e-91
1.63853e-88
4.0153e-92
3.46795e-42
3.79084e-42
1.18747e-35
-3.26488e-35
2.46486e-34
-9.40794e-34
2.72868e-34
-8.74237e-34
2.80204e-35
-1.8503e-34
1.02225e-36
-1.19511e-35
5.64627e-38
-4.06275e-37
2.92043e-39
-1.86021e-38
1.09236e-40
-6.83503e-40
3.08904e-42
-1.54925e-41
7.19982e-44
-2.20547e-43
3.39254e-45
-1.55732e-45
1.83166e-46
6.07252e-47
7.66798e-48
7.65306e-48
3.07775e-49
4.96116e-49
1.24103e-50
2.63956e-50
4.82825e-52
1.26222e-51
1.78799e-53
5.56533e-53
6.27954e-55
2.28602e-54
2.08315e-56
8.78231e-56
6.49676e-58
3.15894e-57
1.89522e-59
1.06297e-58
5.14312e-61
3.33866e-60
1.29031e-62
9.75635e-62
2.97135e-64
2.64142e-63
6.22823e-66
6.59056e-65
1.17638e-67
1.50518e-66
1.9777e-69
3.1202e-68
2.91429e-71
5.80779e-70
3.69013e-73
9.57774e-72
3.91211e-75
1.37518e-73
3.3506e-77
1.67936e-75
2.20421e-79
1.68872e-77
1.03323e-81
1.33373e-79
3.08966e-84
7.69535e-82
4.96174e-87
2.91634e-84
3.13139e-90
5.81366e-87
4.13631e-90
1.00502e-39
-1.22948e-39
1.04932e-33
-3.42e-33
1.51076e-32
-6.9801e-32
1.25458e-32
-5.55283e-32
1.09709e-33
-1.01397e-32
4.03258e-35
-6.06319e-34
2.04301e-36
-2.04105e-35
1.02932e-37
-8.25702e-37
3.81303e-39
-2.81501e-38
1.07105e-40
-6.33071e-40
2.66244e-42
-9.18693e-42
1.17596e-43
-6.22537e-44
5.66919e-45
3.10617e-45
2.2382e-46
3.32117e-46
8.51898e-48
1.9867e-47
3.22342e-49
9.86839e-49
1.1752e-50
4.41413e-50
4.08496e-52
1.8227e-51
1.34856e-53
7.02005e-53
4.21014e-55
2.53196e-54
1.23705e-56
8.56009e-56
3.40351e-58
2.71012e-57
8.71976e-60
8.01638e-59
2.06736e-61
2.20796e-60
4.5037e-63
5.63845e-62
8.9408e-65
1.32785e-63
1.60165e-66
2.86426e-65
2.55835e-68
5.61254e-67
3.59062e-70
9.88647e-69
4.3451e-72
1.54534e-70
4.42434e-74
2.10783e-72
3.66716e-76
2.45364e-74
2.36277e-78
2.36426e-76
1.11537e-80
1.80634e-78
3.58329e-83
1.04271e-80
6.78474e-86
4.18733e-83
6.86429e-89
9.71891e-86
1.54907e-88
1.3236e-37
-3.45033e-37
5.86454e-32
-2.41345e-31
6.62928e-31
-3.67438e-30
4.22191e-31
-2.49736e-30
3.21982e-32
-3.93353e-31
1.19702e-33
-2.18571e-32
5.58095e-35
-7.2884e-34
2.71958e-36
-2.613e-35
1.00083e-37
-8.45832e-37
2.78669e-39
-1.87217e-38
7.42828e-41
-2.67176e-40
3.09684e-42
-1.62992e-42
1.35659e-43
1.15245e-43
5.03714e-45
1.0471e-44
1.81475e-46
5.77185e-46
6.44658e-48
2.67435e-47
2.20316e-49
1.11854e-48
7.18542e-51
4.32407e-50
2.22775e-52
1.56075e-51
6.53734e-54
5.28072e-53
1.80715e-55
1.67634e-54
4.68206e-57
4.98767e-56
1.13066e-58
1.38765e-57
2.52926e-60
3.59785e-59
5.20425e-62
8.65555e-61
9.77007e-64
1.92171e-62
1.65743e-65
3.91114e-64
2.51151e-67
7.23763e-66
3.35144e-69
1.2054e-67
3.86783e-71
1.78408e-69
3.77173e-73
2.3088e-71
3.01285e-75
2.55756e-73
1.90238e-77
2.35805e-75
9.12496e-80
1.7634e-77
3.09384e-82
1.02329e-79
6.47992e-85
4.27559e-82
9.18694e-88
1.09345e-84
3.09428e-87
1.0475e-35
-1.68858e-34
2.28272e-30
-1.26026e-29
2.22423e-29
-1.4739e-28
1.11332e-29
-8.56048e-29
7.55567e-31
-1.16749e-29
2.8544e-32
-6.06052e-31
1.2213e-33
-2.00353e-32
5.58889e-35
-6.3367e-34
2.01193e-36
-1.95719e-35
5.84715e-38
-4.23339e-37
1.6967e-39
-5.97327e-39
6.70332e-41
-2.88109e-41
2.69433e-42
3.38397e-42
9.44688e-44
2.63776e-43
3.2324e-45
1.3449e-44
1.08181e-46
5.83114e-46
3.47766e-48
2.28785e-47
1.0672e-49
8.3059e-49
3.11437e-51
2.8174e-50
8.60614e-53
8.96379e-52
2.24158e-54
2.67729e-53
5.47575e-56
7.49947e-55
1.24772e-57
1.96558e-56
2.63588e-59
4.8041e-58
5.12692e-61
1.09021e-59
9.10827e-63
2.2848e-61
1.46411e-64
4.39273e-63
2.10542e-66
7.68538e-65
2.67139e-68
1.21138e-66
2.93846e-70
1.69891e-68
2.74388e-72
2.08719e-70
2.12586e-74
2.20767e-72
1.32927e-76
1.97205e-74
6.45158e-79
1.45188e-76
2.26112e-81
8.44709e-79
6.21166e-84
3.60295e-81
9.00157e-87
9.81875e-84
4.11015e-86
-8.49179e-31
-4.81964e-32
6.53134e-29
-5.18164e-28
5.95822e-28
-4.67272e-27
2.39648e-28
-2.32749e-27
1.47553e-29
-2.77029e-28
5.68317e-31
-1.35232e-29
2.21728e-32
-4.43823e-31
9.9645e-34
-1.24682e-32
3.56239e-35
-3.74708e-34
9.88365e-37
-7.89237e-36
3.32666e-38
-1.02283e-37
1.25296e-39
-2.70008e-40
4.67178e-41
8.33397e-41
1.56149e-42
5.65937e-42
5.10037e-44
2.68658e-43
1.6171e-45
1.09604e-44
4.91674e-47
4.05624e-46
1.42662e-48
1.39019e-47
3.93566e-50
4.45314e-49
1.02809e-51
1.33822e-50
2.53178e-53
3.77599e-52
5.84936e-55
9.99486e-54
1.26117e-56
2.47621e-55
2.52255e-58
5.72307e-57
4.64878e-60
1.22869e-58
7.83176e-62
2.43729e-60
1.19503e-63
4.4378e-62
1.63319e-65
7.35773e-64
1.97196e-67
1.09997e-65
2.0734e-69
1.46473e-67
1.87011e-71
1.72129e-69
1.41596e-73
1.75311e-71
8.81772e-76
1.53199e-73
4.29189e-78
1.11269e-75
1.52441e-80
6.43926e-78
5.48601e-83
2.77295e-80
7.20986e-86
7.85725e-83
4.17634e-85
-1.23647e-28
3.58567e-31
1.44188e-27
-1.74929e-26
1.31697e-26
-1.19103e-25
4.336e-27
-5.13219e-26
2.45986e-28
-5.39298e-27
9.66875e-30
-2.4943e-28
3.71526e-31
-8.15098e-30
1.50839e-32
-2.22293e-31
5.37483e-34
-5.93755e-33
1.65434e-35
-1.23552e-34
5.79574e-37
-1.65739e-36
2.08176e-38
2.7637e-39
7.29864e-40
1.77797e-39
2.34947e-41
1.07221e-40
7.3652e-43
4.77612e-42
2.22818e-44
1.84638e-43
6.45304e-46
6.49071e-45
1.78199e-47
2.11442e-46
4.67558e-49
6.43779e-48
1.16111e-50
1.83856e-49
2.71761e-52
4.92937e-51
5.96722e-54
1.23966e-52
1.22291e-55
2.91791e-54
2.32561e-57
6.40783e-56
4.07659e-59
1.30735e-57
6.53594e-61
2.46508e-59
9.49678e-63
4.26794e-61
1.23824e-64
6.7316e-63
1.4346e-66
9.60353e-65
1.45783e-68
1.22749e-66
1.28349e-70
1.39265e-68
9.59295e-73
1.38621e-70
5.89672e-75
1.18542e-72
2.8535e-77
8.4694e-75
1.01461e-79
4.85408e-77
4.5024e-82
2.09266e-79
5.14672e-85
6.06415e-82
3.61187e-84
-6.92069e-27
5.14718e-28
2.74997e-26
-4.92734e-25
2.47092e-25
-2.45432e-24
6.74051e-26
-9.2865e-25
3.55312e-27
-8.74105e-26
1.42337e-28
-3.85955e-27
5.65947e-30
-1.26812e-28
2.11006e-31
-3.51036e-30
7.51275e-33
-8.4594e-32
2.61307e-34
-1.71402e-33
9.01182e-36
-2.33191e-35
3.13461e-37
1.93559e-37
1.04608e-38
3.34928e-38
3.27074e-40
1.82777e-39
9.90344e-42
7.70465e-41
2.8816e-43
2.84447e-42
8.01211e-45
9.57237e-44
2.12163e-46
2.98669e-45
5.33282e-48
8.70823e-47
1.26772e-49
2.38065e-48
2.83879e-51
6.10735e-50
5.96164e-53
1.46909e-51
1.16833e-54
3.30665e-53
2.1246e-56
6.94257e-55
3.56165e-58
1.35416e-56
5.46524e-60
2.44119e-58
7.6228e-62
4.04632e-60
9.57815e-64
6.13082e-62
1.07545e-65
8.42501e-64
1.0697e-67
1.0462e-65
9.23361e-70
1.15777e-67
6.78026e-72
1.1262e-69
4.10623e-74
9.4349e-72
1.96602e-76
6.62728e-74
7.90996e-79
3.75497e-76
3.71835e-81
1.61286e-78
3.48371e-84
4.71673e-81
2.86394e-83
-2.45803e-25
3.4708e-26
5.68975e-25
-1.15918e-23
4.03198e-24
-4.10014e-23
9.12922e-25
-1.39098e-23
4.46654e-26
-1.18954e-24
1.81674e-27
-5.03269e-26
7.47819e-29
-1.66203e-27
2.8569e-30
-4.66375e-29
1.03463e-31
-1.12894e-30
3.61053e-33
-2.23475e-32
1.23625e-34
-2.60015e-34
4.19283e-36
5.21208e-36
1.35203e-37
5.48045e-37
4.13994e-39
2.75632e-38
1.22107e-40
1.11056e-39
3.44881e-42
3.95163e-41
9.29115e-44
1.28466e-42
2.38052e-45
3.87378e-44
5.78258e-47
1.09125e-45
1.32718e-48
2.88076e-47
2.86718e-50
7.13216e-49
5.80565e-52
1.65475e-50
1.09655e-53
3.59069e-52
1.92175e-55
7.2655e-54
3.10866e-57
1.36608e-55
4.61241e-59
2.37818e-57
6.23892e-61
3.81062e-59
7.66265e-63
5.61294e-61
8.43073e-65
7.53485e-63
8.21107e-67
9.13821e-65
6.95899e-69
9.8979e-67
5.0222e-71
9.43273e-69
2.99809e-73
7.76053e-71
1.41791e-75
5.36999e-73
8.03923e-78
3.00677e-75
3.08776e-80
1.28413e-77
2.33144e-83
3.75332e-80
2.19232e-82
-5.4739e-24
9.22146e-25
1.37197e-23
-2.25232e-22
5.81801e-23
-5.6326e-22
1.08082e-23
-1.75278e-22
4.84148e-25
-1.36447e-23
1.97943e-26
-5.48111e-25
8.38352e-28
-1.7963e-26
3.28913e-29
-5.09685e-28
1.21394e-30
-1.23844e-29
4.28371e-32
-2.36622e-31
1.46301e-33
-2.05223e-33
4.88148e-35
9.68853e-35
1.54467e-36
7.64544e-36
4.67035e-38
3.60641e-37
1.35377e-39
1.40334e-38
3.74668e-41
4.85844e-40
9.87252e-43
1.54011e-41
2.47032e-44
4.53004e-43
5.85282e-46
1.24435e-44
1.30878e-47
3.20115e-46
2.7523e-49
7.71797e-48
5.42103e-51
1.74265e-49
9.9595e-53
3.67801e-51
1.69981e-54
7.24315e-53
2.68115e-56
1.32645e-54
3.8948e-58
2.25346e-56
5.17875e-60
3.54099e-58
6.24214e-62
5.11256e-60
6.75266e-64
6.73569e-62
6.46906e-66
8.02268e-64
5.39995e-68
8.54133e-66
3.84528e-70
8.01458e-68
2.26708e-72
6.5034e-70
1.36215e-74
4.44475e-72
7.62181e-77
2.46659e-74
2.55831e-79
1.04476e-76
1.58604e-82
3.03807e-79
1.68149e-81
-5.23172e-23
4.68872e-24
3.03431e-22
-3.59118e-21
7.45842e-22
-6.54408e-21
1.09437e-22
-1.85977e-21
4.38843e-24
-1.27908e-22
1.79173e-25
-4.8082e-24
7.75714e-27
-1.54987e-25
3.13359e-28
-4.40251e-27
1.18367e-29
-1.06205e-28
4.22921e-31
-1.90809e-30
1.44764e-32
-7.50218e-33
4.80704e-34
1.34543e-33
1.51395e-35
8.83871e-35
4.55545e-37
3.97386e-36
1.30895e-38
1.50853e-37
3.58231e-40
5.12872e-39
9.31725e-42
1.59977e-40
2.29762e-43
4.6316e-42
5.35768e-45
1.25178e-43
1.17781e-46
3.16648e-45
2.43284e-48
7.50144e-47
4.70597e-50
1.66336e-48
8.49487e-52
3.4492e-50
1.42554e-53
6.67138e-52
2.21924e-55
1.2033e-53
3.18368e-57
2.01663e-55
4.17981e-59
3.12614e-57
4.97763e-61
4.45554e-59
5.32188e-63
5.79611e-61
5.04415e-65
6.82132e-63
4.17076e-67
7.18481e-65
2.94284e-69
6.67593e-67
1.91468e-71
5.36792e-69
1.29898e-73
3.64204e-71
6.4897e-76
2.00745e-73
2.08291e-78
8.45093e-76
1.09281e-81
2.4392e-78
1.2945e-80
2.60422e-25
1.00572e-24
5.22583e-21
-4.73497e-20
7.94882e-21
-6.34877e-20
8.62481e-22
-1.48058e-20
3.13481e-23
-8.74215e-22
1.30338e-24
-3.15216e-23
5.77882e-26
-1.01843e-24
2.39446e-27
-2.9074e-26
9.25387e-29
-6.90828e-28
3.37105e-30
-1.1176e-29
1.17174e-31
4.95481e-32
3.91288e-33
1.42143e-32
1.23899e-34
8.27276e-34
3.7386e-36
3.59607e-35
1.07396e-37
1.34484e-36
2.9318e-39
4.53031e-38
7.59201e-41
1.40266e-39
1.86104e-42
4.03184e-41
4.30795e-44
1.08143e-42
9.39045e-46
2.71303e-44
1.92228e-47
6.36998e-46
3.68536e-49
1.40011e-47
6.59494e-51
2.87611e-49