/*--------------------------------*- C++ -*----------------------------------*\
  =========                 |
  \\      /  F ield         | OpenFOAM: The Open Source CFD Toolbox
   \\    /   O peration     | Website:  https://openfoam.org
    \\  /    A nd           | Version:  7
     \\/     M anipulation  |
\*---------------------------------------------------------------------------*/
FoamFile
{
    version     2.0;
    format      ascii;
    class       volScalarField;
    location    "0.15";
    object      alpha.water;
}
// * * * * * * * * * * * * * * * * * * * * * * * * * * * * * * * * * * * * * //

dimensions      [0 0 0 0 0 0 0];

internalField   nonuniform List<scalar> 
9072
(
1
1
1
1
1
1
1
1
1
1
1
1
1
1
1
1
1
1
1
1
1
1
1
1
1
1
1
1
1
1
1
1
1
1
1
1
1
1
0.999903
0.999811
0.999819
0.999791
0.691566
0.0729361
0.00680857
0.0052699
1
1
1
1
1
1
1
1
1
1
1
1
1
1
1
1
1
1
1
1
1
1
1
1
1
1
1
1
1
1
1
1
1
1
1
1
0.999999
0.999998
0.999998
0.999995
0.985601
0.846396
0.438062
0.0483247
0.00524656
0.00290408
1
1
1
1
1
1
1
1
1
1
1
1
1
1
1
1
1
1
1
1
1
1
1
1
1
1
1
1
1
1
1
1
1
1
1
1
0.999991
0.999993
0.999994
0.999991
0.920154
0.496028
0.0924609
0.0228371
0.00460003
0.00149331
1
1
1
1
1
1
1
1
1
1
1
1
1
1
1
1
1
1
1
1
1
1
1
1
1
1
1
1
1
1
1
1
1
0.999999
0.999998
0.999996
0.999973
0.999956
0.999991
0.978396
0.719406
0.194651
0.0143097
0.00704781
0.00443312
0.000828424
1
1
1
1
1
1
1
1
1
1
1
1
1
1
1
1
1
1
1
1
1
1
1
1
1
1
1
1
1
1
1
1
0.999999
0.999986
0.99998
0.999968
0.999895
0.999804
0.988847
0.812848
0.337875
0.0339386
0.00434477
0.00171032
0.00135032
0.000400891
1
1
1
1
1
1
1
1
1
1
1
1
1
1
1
1
1
1
1
1
1
1
1
1
1
1
1
1.00001
1.00001
1.00001
1
1
0.999999
0.999901
0.999706
0.99974
0.999603
0.991746
0.855175
0.42058
0.0677856
0.00512869
0.00162625
0.000623099
0.000324985
0.000158589
1
1
1
1
1
1
1
1
1
1
1
1
1
1
1
1
1
1
1
1
1
1
1
1
1
1
1.00001
1.00001
1.00001
1.00001
1.00001
1
1
0.99946
0.999354
0.99929
0.988485
0.854462
0.441878
0.0884988
0.00755818
0.0018271
0.000631225
0.000238654
0.000135501
7.42194e-05
1
1
1
1
1
1
1
1
1
1
1
1
1
1
1
1
1
1
1
1
1
1
1
1
1
1
1.00001
1.00001
1.00001
1.00001
1.00001
1
1
0.99911
0.995722
0.968679
0.799369
0.395102
0.0839499
0.0114832
0.00184907
0.000564822
0.000214482
9.14479e-05
5.79863e-05
3.44619e-05
1
1
1
1
1
1
1
1
1
1
1
1
1
1
1
1
1
1
1
1
1
1
1
1
1
1
1.00001
1.00001
1.00001
1.00001
1.00001
1
1
0.996693
0.937928
0.696225
0.293178
0.0567529
0.0105293
0.00259705
0.000508896
0.000168236
7.28311e-05
3.6062e-05
2.53143e-05
1.58939e-05
1
1
1
1
1
1
1
1
1
1
1
1
1
1
1
1
1
1
1
1
1
1
1
1
1
1
1
1.00001
1.00001
1.00001
1
1
1
0.978839
0.699527
0.224811
0.0243606
0.0048464
0.00191509
0.000479103
0.000145289
5.58683e-05
2.62709e-05
1.47734e-05
1.12289e-05
7.34795e-06
1
1
1
1
1
1
1
1
1
1
1
1
1
1
1
1
1
1
1
1
1
1
1
1
1
1
1
1
1
1
1
1
1
0.929592
0.432721
0.0316728
0.00397055
0.00132376
0.000418559
0.000146062
4.7715e-05
1.91716e-05
1.0032e-05
6.26474e-06
5.05593e-06
3.43261e-06
1
1
1
1
1
1
1
1
1
1
1
1
1
1
1
1
1
1
1
1
1
1
1
1
1
1
1
1
1
1
1
1
0.999999
0.819084
0.227746
0.00761351
0.00176212
0.000466353
0.000131535
4.74798e-05
1.81226e-05
7.32304e-06
4.02766e-06
2.74003e-06
2.31863e-06
1.66209e-06
1
1
1
1
1
1
1
1
1
1
1
1
1
1
1
1
1
1
1
1
1
1
1
1
1
1
1
1
1
1
1
1
0.984745
0.59265
0.0726944
0.0038644
0.000846008
0.000204562
5.10143e-05
1.71144e-05
7.43322e-06
3.00803e-06
1.67863e-06
1.23252e-06
1.07647e-06
8.16437e-07
1
1
1
1
1
1
1
1
1
1
1
1
1
1
1
1
1
1
1
1
1
1
1
1
1
1
1
1
1
1
1
0.999999
0.900261
0.334986
0.0124595
0.0019646
0.000470625
9.71458e-05
2.21807e-05
6.99888e-06
3.06118e-06
1.27266e-06
7.00136e-07
5.44308e-07
4.82744e-07
3.94461e-07
1
1
1
1
1
1
1
1
1
1
1
1
1
1
1
1
1
1
1
1
1
1
1
1
1
1
1
1
1
1
1
0.999992
0.759926
0.143607
0.00484224
0.00103561
0.000239717
4.80049e-05
1.03675e-05
3.05489e-06
1.25795e-06
5.04415e-07
2.67779e-07
2.18155e-07
2.05839e-07
1.75983e-07
1
1
1
1
1
1
1
1
1
1
1
1
1
1
1
1
1
1
1
1
1
1
1
1
1
1
1
1
1
1
1
0.999919
0.563792
0.0425115
0.00271597
0.000577646
0.000127312
2.47682e-05
5.05574e-06
1.31558e-06
4.21861e-07
1.2775e-07
5.92089e-08
4.96778e-08
5.42323e-08
6.29129e-08
2.24217e-37
3.66316e-35
1.60424e-33
3.26248e-33
8.84335e-34
5.8539e-35
7.58059e-37
1.39395e-38
5.11893e-40
1.84668e-41
6.9471e-43
5.12487e-44
1.35562e-44
1.05742e-45
4.88051e-47
2.16413e-48
9.59185e-50
4.09178e-51
1.66076e-52
6.39335e-54
2.32624e-55
7.96733e-57
2.55722e-58
7.65344e-60
2.12363e-61
5.42612e-63
1.26628e-64
2.67203e-66
5.03499e-68
8.33837e-70
1.18855e-71
1.41732e-73
1.35801e-75
9.83719e-78
4.87771e-80
1.38305e-82
1.30745e-85
2.59443e-86
1.90155e-37
1.52794e-32
2.17106e-31
2.59411e-31
1.22699e-31
9.48705e-33
1.16478e-34
5.72059e-37
1.394e-38
5.11897e-40
2.75073e-41
6.50387e-42
1.70706e-42
1.15978e-43
4.95025e-45
2.13995e-46
9.30161e-48
3.88698e-49
1.54676e-50
5.84466e-52
2.08903e-53
7.03137e-55
2.21799e-56
6.52207e-58
1.77694e-59
4.4538e-61
1.01833e-62
2.10228e-64
3.86876e-66
6.24315e-68
8.64413e-70
9.96405e-72
9.14994e-74
6.24399e-76
2.80298e-78
6.41266e-81
4.33484e-84
2.59443e-86
1.805e-35
2.30695e-30
2.52177e-29
2.54707e-29
9.00445e-30
5.99247e-31
8.58559e-33
7.32924e-35
1.65494e-36
6.06771e-38
2.99288e-39
4.81906e-40
8.14681e-41
4.94717e-42
2.0573e-43
8.50727e-45
3.50029e-46
1.38545e-47
5.22995e-49
1.87637e-50
6.37168e-52
2.03846e-53
6.11371e-55
1.70953e-56
4.429e-58
1.05548e-59
2.29405e-61
4.5005e-63
7.86688e-65
1.20497e-66
1.58135e-68
1.72248e-70
1.4836e-72
9.29896e-75
3.54333e-77
6.04619e-80
3.61523e-83
1.48895e-84
3.43193e-33
2.03883e-28
1.73967e-27
1.51589e-27
4.19527e-28
2.48261e-29
4.13975e-31
4.42509e-33
9.89244e-35
3.59151e-36
1.61765e-37
2.09546e-38
2.6281e-39
1.41256e-40
5.55795e-42
2.17259e-43
8.40077e-45
3.12585e-46
1.1108e-47
3.75526e-49
1.20247e-50
3.62964e-52
1.02751e-53
2.71263e-55
6.63604e-57
1.49327e-58
3.06406e-60
5.6728e-62
9.35111e-64
1.34879e-65
1.66204e-67
1.68891e-69
1.33499e-71
7.27693e-74
2.51046e-76
4.79347e-79
4.39528e-82
5.81442e-83
4.07962e-31
1.24514e-26
8.49662e-26
6.39218e-26
1.4266e-26
7.65006e-28
1.45787e-29
1.75612e-31
3.91381e-33
1.40313e-34
6.02808e-36
6.62359e-37
6.4949e-38
3.0942e-39
1.14629e-40
4.22747e-42
1.53501e-43
5.36444e-45
1.79244e-46
5.70253e-48
1.71945e-49
4.88966e-51
1.30452e-52
3.2463e-54
7.4861e-56
1.58767e-57
3.06905e-59
5.34829e-61
8.28514e-63
1.11967e-64
1.28486e-66
1.19881e-68
8.42344e-71
4.38924e-73
1.59595e-75
3.91158e-78
4.03672e-81
1.03387e-81
3.68592e-29
5.72337e-25
3.17056e-24
2.05981e-24
3.78801e-25
1.87204e-26
4.0023e-28
5.20178e-30
1.10219e-31
3.57458e-33
1.72863e-34
1.69497e-35
1.3204e-36
5.57754e-38
1.95276e-39
6.80679e-41
2.32524e-42
7.64542e-44
2.40537e-45
7.20962e-47
2.04893e-48
5.49337e-50
1.38197e-51
3.24275e-53
7.04927e-55
1.40851e-56
2.56243e-58
4.19462e-60
6.08355e-62
7.64905e-64
8.05354e-66
6.88879e-68
4.63363e-70
2.49384e-72
1.03691e-74
2.70559e-77
3.36189e-80
1.17996e-80
1.16648e-26
2.08484e-23
9.38878e-23
5.28866e-23
8.17463e-24
3.78248e-25
8.96479e-27
1.24749e-28
3.04118e-30
9.71305e-32
4.34023e-33
3.74082e-34
2.31048e-35
8.73831e-37
2.91371e-38
9.63116e-40
3.10519e-41
9.63482e-43
2.86163e-44
8.09899e-46
2.17363e-47
5.50345e-49
1.30723e-50
2.89491e-52
5.93447e-54
1.11665e-55
1.90866e-57
2.92415e-59
3.94045e-61
4.53801e-63
4.49752e-65
3.60368e-67
2.58579e-69
1.49471e-71
6.42975e-74
1.68635e-76
2.37923e-79
1.02364e-79
3.83833e-24
6.2076e-22
2.24634e-21
1.10897e-21
1.47033e-22
6.46308e-24
1.68285e-25
3.13232e-27
6.8383e-29
2.20309e-30
1.11865e-31
7.17881e-33
3.57113e-34
1.23689e-35
3.94984e-37
1.24294e-38
3.79932e-40
1.11702e-41
3.14322e-43
8.42642e-45
2.14151e-46
5.13212e-48
1.15302e-49
2.41247e-51
4.66439e-53
8.25497e-55
1.3209e-56
1.87831e-58
2.36833e-60
2.593e-62
2.49682e-64
2.13782e-66
1.55443e-68
9.02176e-71
3.79593e-73
9.32121e-76
1.59307e-78
7.56439e-79
2.74654e-22
1.53529e-20
4.36966e-20
1.92832e-20
2.23994e-21
9.47036e-23
2.70849e-24
6.61687e-26
1.61855e-27
5.40887e-29
2.37232e-30
1.19662e-31
4.97029e-33
1.61387e-34
4.96122e-36
1.49392e-37
4.35372e-39
1.21905e-40
3.26461e-42
8.32285e-44
2.00981e-45
4.5717e-47
9.73481e-49
1.92636e-50
3.51082e-52
5.82399e-54
8.75568e-56
1.18283e-57
1.41661e-59
1.5883e-61
1.5647e-63
1.34712e-65
9.61291e-68
5.3886e-70
2.1782e-72
4.8798e-75
1.01797e-77
5.13756e-78
8.72669e-21
3.17024e-19
6.93413e-19
2.81073e-19
2.91708e-20
1.19459e-21
3.78169e-23
1.08474e-24
3.17028e-26
1.05588e-27
4.08091e-29
1.72632e-30
6.21761e-32
1.92775e-33
5.75033e-35
1.66945e-36
4.67414e-38
1.25524e-39
3.21943e-41
7.84942e-43
1.80988e-44
3.92337e-46
7.94089e-48
1.48766e-49
2.56438e-51
4.05926e-53
5.78038e-55
7.81804e-57
9.61651e-59
1.06819e-60
1.04414e-62
8.70604e-65
5.99612e-67
3.23946e-69
1.18194e-71
2.90813e-74
6.53852e-77
3.38365e-77
1.60253e-19
5.41446e-18
9.11301e-18
3.48289e-18
3.25596e-19
1.28398e-20
4.35976e-22
1.4099e-23
4.53614e-25
1.55264e-26
5.64137e-28
2.10141e-29
6.89836e-31
2.08254e-32
6.08232e-34
1.71798e-35
4.66353e-37
1.21151e-38
2.99953e-40
7.0444e-42
1.56076e-43
3.24138e-45
6.25949e-47
1.1261e-48
1.8647e-50
2.87857e-52
4.19606e-54
5.62686e-56
6.86994e-58
7.47069e-60
7.08179e-62
5.73898e-64
3.82134e-66
1.92105e-68
7.22698e-71
1.75847e-73
4.36362e-76
2.26132e-76
1.24394e-18
7.59632e-17
1.0307e-16
3.69818e-17
3.05551e-18
1.13875e-19
4.00983e-21
1.41534e-22
4.93471e-24
1.72627e-25
6.05596e-27
2.09266e-28
6.61144e-30
1.97892e-31
5.71257e-33
1.58626e-34
4.21919e-36
1.07104e-37
2.5843e-39
5.89855e-41
1.26614e-42
2.54086e-44
4.77411e-46
8.29215e-48
1.37254e-49
2.13806e-51
3.10388e-53
4.12271e-55
4.93549e-57
5.24184e-59
4.87938e-61
3.85332e-63
2.447e-65
1.20787e-67
4.74321e-70
1.19416e-72
2.95258e-75
1.54783e-75
3.85825e-19
8.88228e-16
1.02003e-15
3.14519e-16
2.20922e-17
7.86443e-19
2.88053e-20
1.07939e-21
3.96534e-23
1.42675e-24
5.03005e-26
1.69975e-27
5.35301e-29
1.60796e-30
4.6368e-32
1.28037e-33
3.37496e-35
8.46415e-37
2.01162e-38
4.50814e-40
9.4716e-42
1.87113e-43
3.43904e-45
5.9984e-47
9.95776e-49
1.55475e-50
2.23895e-52
2.93714e-54
3.46725e-56
3.6532e-58
3.34919e-60
2.57654e-62
1.55925e-64
8.26004e-67
3.09195e-69
7.98895e-72
2.03774e-74
1.07753e-74
1.90649e-16
8.98645e-15
8.08914e-15
1.83326e-15
1.08539e-16
4.03776e-18
1.61142e-19
6.47131e-21
2.49929e-22
9.29888e-24
3.35862e-25
1.14336e-26
3.65319e-28
1.113e-29
3.24043e-31
8.9959e-33
2.37556e-34
5.94916e-36
1.40737e-37
3.12938e-39
6.54135e-41
1.28148e-42
2.33422e-44
4.12739e-46
6.90578e-48
1.07677e-49
1.54501e-51
2.01819e-53
2.38271e-55
2.5004e-57
2.27108e-59
1.71552e-61
1.06023e-63
5.58344e-66
2.07337e-68
5.24151e-71
1.40742e-73
7.51926e-74
1.63289e-14
6.72e-14
4.1082e-14
6.32928e-15
3.46991e-16
1.53742e-17
7.06501e-19
3.1162e-20
1.2845e-21
4.97486e-23
1.83944e-24
6.39779e-26
2.10157e-27
6.56251e-29
1.94906e-30
5.49817e-32
1.47036e-33
3.71746e-35
8.85209e-37
1.97543e-38
4.15226e-40
8.15772e-42
1.49691e-43
2.66057e-45
4.48688e-47
7.03758e-49
1.01477e-50
1.33218e-52
1.584e-54
1.66937e-56
1.51797e-58
1.14051e-60
7.13713e-63
3.72119e-65
1.39663e-67
3.46564e-70
9.67573e-73
5.26385e-73
6.55215e-14
3.33697e-13
1.26406e-13
1.36709e-14
7.83056e-16
4.20647e-17
2.2152e-18
1.09632e-19
5.09441e-21
2.18875e-22
8.37979e-24
3.00626e-25
1.02231e-26
3.29132e-28
1.00285e-29
2.88995e-31
7.86424e-33
2.01557e-34
4.84663e-36
1.08783e-37
2.29345e-39
4.50849e-41
8.3252e-43
1.48675e-44
2.52897e-46
3.99668e-48
5.8017e-50
7.68526e-52
9.20489e-54
9.74076e-56
8.84119e-58
6.53958e-60
4.33129e-62
2.22752e-64
8.66723e-67
2.19203e-69
6.52321e-72
3.70833e-72
1
1
1
1
1
1
1
1
1
1
1
1
1
1
1
1
1
1
1
1
1
1
1
1
1
1
1
1
1
1
1.00001
0.89505
0.272417
0.00632542
0.00125584
0.000268206
5.19633e-05
9.66354e-06
1.84562e-06
4.27489e-07
1.34879e-07
4.13574e-08
1.7136e-08
1.29409e-08
1.28618e-08
1.57213e-08
1
1
1
1
1
1
1
1
1
1
1
1
1
1
1
1
1
1
1
1
1
1
1
1
1
1
1
1
1
1
0.999913
0.545274
0.031162
0.00203375
0.000434975
9.51218e-05
1.85311e-05
3.3917e-06
6.19476e-07
1.32085e-07
3.91526e-08
1.4314e-08
5.54804e-09
3.31253e-09
3.26112e-09
3.79726e-09
1
1
1
1
1
1
1
1
1
1
1
1
1
1
1
1
1
1
1
1
1
1
1
1
1
1
1
1
1
1.00001
0.831685
0.16165
0.00365607
0.000672487
0.000146271
3.08446e-05
6.32372e-06
1.23016e-06
2.34828e-07
5.02566e-08
1.44151e-08
5.78428e-09
2.58581e-09
1.5759e-09
1.26595e-09
1.25465e-09
1
1
1
1
1
1
1
1
1
1
1
1
1
1
1
1
1
1
1
1
1
1
1
1
1
1
1
1
1
0.999945
0.452823
0.0127188
0.00117874
0.000223027
4.5243e-05
9.50104e-06
2.00548e-06
4.12417e-07
8.31176e-08
1.84368e-08
5.64243e-09
2.59121e-09
1.48974e-09
9.75079e-10
7.03015e-10
6.4335e-10
1
1
1
1
1
1
1
1
1
1
1
1
1
1
1
1
1
1
1
1
1
1
1
1
1
1
1
1
1.00003
0.812365
0.12974
0.00252006
0.000397617
7.0806e-05
1.36333e-05
2.81711e-06
6.1025e-07
1.34843e-07
3.01763e-08
7.16018e-09
2.53405e-09
1.5002e-09
1.08286e-09
7.45587e-10
5.12178e-10
3.97645e-10
1
1
1
1
1
1
1
1
1
1
1
1
1
1
1
1
1
1
1
1
1
1
1
1
1
1
1
1
0.999965
0.460335
0.0109761
0.000844632
0.000124395
2.18034e-05
4.01796e-06
8.12263e-07
1.79268e-07
4.27684e-08
1.12604e-08
3.57504e-09
1.68715e-09
1.14725e-09
7.98382e-10
5.07695e-10
3.03248e-10
1.84866e-10
1
1
1
1
1
1
1
1
1
1
1
1
1
1
1
1
1
1
1
1
1
1
1
1
1
1
1
1.00001
0.859796
0.150624
0.00216013
0.000293871
4.12056e-05
6.57859e-06
1.15082e-06
2.27393e-07
5.11734e-08
1.32766e-08
4.41411e-09
2.17576e-09
1.40748e-09
9.39839e-10
5.68422e-10
3.04221e-10
1.46431e-10
7.00966e-11
1
1
1
1
1
1
1
1
1
1
1
1
1
1
1
1
1
1
1
1
1
1
1
1
1
1
1
0.999997
0.560565
0.0206853
0.000758738
9.3798e-05
1.29038e-05
1.93585e-06
3.22302e-07
6.26003e-08
1.47527e-08
4.59903e-09
2.20598e-09
1.60635e-09
1.15619e-09
7.20316e-10
3.76587e-10
1.6741e-10
6.59983e-11
2.60654e-11
1
1
1
1
1
1
1
1
1
1
1
1
1
1
1
1
1
1
1
1
1
1
1
1
1
1
1
0.954974
0.240529
0.00234503
0.00028393
3.24439e-05
4.0441e-06
5.60054e-07
8.86747e-08
1.74397e-08
4.82626e-09
2.1893e-09
1.58773e-09
1.25223e-09
8.62966e-10
4.84336e-10
2.19041e-10
8.32252e-11
2.81294e-11
9.54802e-12
1
1
1
1
1
1
1
1
1
1
1
1
1
1
1
1
1
1
1
1
1
1
1
1
1
1
1
0.727992
0.0629019
0.000860577
8.94525e-05
9.8844e-06
1.21285e-06
1.58527e-07
2.45144e-08
5.42412e-09
2.17019e-09
1.49421e-09
1.23202e-09
9.18212e-10
5.65318e-10
2.76509e-10
1.09102e-10
3.68235e-11
1.11233e-11
3.35605e-12
1
1
1
1
1
1
1
1
1
1
1
1
1
1
1
1
1
1
1
1
1
1
1
1
1
1
0.999994
0.438891
0.00563679
0.00032164
3.12164e-05
3.13122e-06
3.50331e-07
4.33976e-08
7.077e-09
2.16498e-09
1.31971e-09
1.14171e-09
9.08588e-10
6.02039e-10
3.18216e-10
1.33989e-10
4.70177e-11
1.4482e-11
4.01159e-12
1.10263e-12
1
1
1
1
1
1
1
1
1
1
1
1
1
1
1
1
1
1
1
1
1
1
1
1
1
1
0.92716
0.187663
0.00129239
0.000119781
1.10279e-05
9.97747e-07
1.01777e-07
1.21801e-08
2.46093e-09
1.2069e-09
1.00882e-09
8.49519e-10
6.05792e-10
3.44034e-10
1.53913e-10
5.65643e-11
1.7988e-11
5.12442e-12
1.31778e-12
3.34802e-13
1
1
1
1
1
1
1
1
1
1
1
1
1
1
1
1
1
1
1
1
1
1
1
1
1
1
0.722243
0.054488
0.000491981
3.8006e-05
3.31377e-06
2.94757e-07
2.85177e-08
3.70006e-09
1.18549e-09
8.66429e-10
7.69145e-10
5.84713e-10
3.56896e-10
1.69977e-10
6.52646e-11
2.14183e-11
6.25952e-12
1.65955e-12
3.98191e-13
9.41689e-14
1
1
1
1
1
1
1
1
1
1
1
1
1
1
1
1
1
1
1
1
1
1
1
1
1
0.999999
0.470866
0.0058254
0.000185337
1.37536e-05
9.93783e-07
8.2714e-08
7.79284e-09
1.35775e-09
7.18433e-10
6.74313e-10
5.51944e-10
3.61268e-10
1.83372e-10
7.36447e-11
2.48715e-11
7.43329e-12
2.01506e-12
4.9904e-13
1.12007e-13
2.47347e-14
1
1
1
1
1
1
1
1
1
1
1
1
1
1
1
1
1
1
1
1
1
1
1
1
1
0.973526
0.237199
0.000993231
6.81822e-05
5.04422e-06
3.18535e-07
2.36747e-08
2.33889e-09
6.99409e-10
5.42403e-10
4.99647e-10
3.60399e-10
1.96824e-10
8.27396e-11
2.86304e-11
8.69701e-12
2.39812e-12
6.06497e-13
1.40687e-13
2.95929e-14
6.11234e-15
1
1
1
1
1
1
1
1
1
1
1
1
1
1
1
1
1
1
1
1
1
1
1
1
1
0.820001
0.0947361
0.000407807
2.15753e-05
1.55597e-06
9.31875e-08
6.59928e-09
8.61602e-10
4.37389e-10
4.31443e-10
3.45515e-10
2.08931e-10
9.39738e-11
3.33619e-11
1.02024e-11
2.83246e-12
7.25797e-13
1.71803e-13
3.73986e-14
7.38276e-15
1.42761e-15
1
1
1
1
1
1
1
1
1
1
1
1
1
1
1
1
1
1
1
1
1
1
1
1
1
0.626214
0.0232755
0.00014431
7.67478e-06
4.05913e-07
2.33068e-08
1.78158e-09
4.2353e-10
3.25535e-10
3.18468e-10
2.18553e-10
1.07059e-10
3.96927e-11
1.22313e-11
3.38224e-12
8.67216e-13
2.0727e-13
4.59961e-14
9.40592e-15
1.74401e-15
3.15841e-16
1
1
1
1
1
1
1
1
1
1
1
1
1
1
1
1
1
1
1
1
1
1
1
1
1
0.406663
0.00153909
4.87863e-05
2.54248e-06
1.13291e-07
5.84439e-09
5.71799e-10
2.67937e-10
2.59491e-10
2.14829e-10
1.22643e-10
4.85412e-11
1.51075e-11
4.14104e-12
1.05192e-12
2.5074e-13
5.60264e-14
1.16663e-14
2.24206e-15
3.90566e-16
6.62295e-17
1
1
1
1
1
1
1
1
1
1
1
1
1
1
1
1
1
1
1
1
1
1
1
1
0.97151
0.221273
0.000461301
1.62454e-05
9.39754e-07
3.38915e-08
1.52674e-09
2.59045e-10
1.8909e-10
2.00446e-10
1.34762e-10
6.05285e-11
1.95606e-11
5.27045e-12
1.31008e-12
3.08232e-13
6.8557e-14
1.43478e-14
2.80537e-15
5.06735e-16
8.29215e-17
1.31568e-17
1
1
1
1
1
1
1
1
1
1
1
1
1
1
1
1
1
1
1
1
1
1
1
1
0.844044
0.103338
0.000193249
4.71029e-06
2.66023e-07
7.84555e-09
4.21503e-10
1.64487e-10
1.52298e-10
1.39658e-10
7.5748e-11
2.64703e-11
7.1198e-12
1.70702e-12
3.89666e-13
8.52257e-14
1.77223e-14
3.47894e-15
6.3916e-16
1.08514e-16
1.66746e-17
2.47272e-18
0.999999
0.999999
1
1
1
1
1
1
1
1
1
1
1
1
1
1
1
1
1
1
1
1
1
1
0.689626
0.0338216
6.19174e-05
1.72648e-06
5.01557e-08
1.29915e-09
1.70139e-10
1.23938e-10
1.18037e-10
8.37341e-11
3.63442e-11
1.03058e-11
2.38476e-12
5.17649e-13
1.09144e-13
2.2228e-14
4.32642e-15
7.97436e-16
1.3774e-16
2.19796e-17
3.1701e-18
4.38739e-19
0.999993
0.999996
0.999999
0.999999
1
1
1
1
1
1
1
1
1
1
1
1
1
1
1
1
1
1
1
1
0.507352
0.00497291
1.32381e-05
3.5004e-07
7.92315e-09
2.11404e-10
8.07642e-11
8.34482e-11
8.28232e-11
4.39246e-11
1.48493e-11
3.57713e-12
7.39847e-13
1.47231e-13
2.87554e-14
5.45935e-15
9.95461e-16
1.72408e-16
2.80095e-17
4.20072e-18
5.68355e-19
7.3289e-20
0.99996
0.999978
0.999991
0.999997
0.999999
0.999999
1
1
1
1
1
1
1
1
1
1
1
1
1
1
1
1
1
0.999998
0.330221
0.000264577
2.50887e-06
1.06207e-07
1.38092e-09
5.52815e-11
4.86466e-11
5.28576e-11
5.16799e-11
2.08657e-11
5.34861e-12
1.1186e-12
2.1228e-13
3.91126e-14
7.09868e-15
1.25845e-15
2.1526e-16
3.5059e-17
5.35887e-18
7.55263e-19
9.57965e-20
1.14875e-20
0.999772
0.999871
0.999948
0.999979
0.999991
0.999996
0.999998
0.999999
0.999999
0.999999
0.999999
0.999999
1
0.999999
0.999999
0.999999
0.999999
0.999999
0.999999
0.999998
0.999998
0.999998
0.999999
0.964732
0.193795
0.000120708
-9.3443e-07
3.12999e-08
1.42558e-10
3.91336e-11
3.9379e-11
3.98511e-11
2.8384e-11
8.85397e-12
1.74982e-12
3.20632e-13
5.64302e-14
9.68213e-15
1.63589e-15
2.71179e-16
4.35707e-17
6.68007e-18
9.61377e-19
1.27309e-19
1.51259e-20
1.68316e-21
0.998687
0.999257
0.999702
0.999871
0.999946
0.999974
0.999985
0.999991
0.999994
0.999995
0.999996
0.999997
0.999997
0.999996
0.999996
0.999995
0.999994
0.999993
0.999991
0.999989
0.999987
0.999986
0.99999
0.857789
0.0989031
4.62232e-05
-8.37416e-11
3.24432e-09
5.28167e-11
6.18189e-11
3.92875e-11
3.1072e-11
1.34938e-11
3.21279e-12
5.2218e-13
8.51907e-14
1.39169e-14
2.23159e-15
3.52518e-16
5.46989e-17
8.23763e-18
1.18854e-18
1.6101e-19
2.00388e-20
2.22861e-21
2.2957e-22
0.981577
0.995643
0.998212
0.999207
0.999657
0.99983
0.999899
0.999937
0.999957
0.999968
0.999973
0.999976
0.999976
0.999975
0.999973
0.999968
0.999962
0.999953
0.999942
0.999928
0.999913
0.999907
0.999934
0.71549
0.0367226
6.04708e-06
-2.82369e-08
1.10155e-10
1.86774e-10
6.2872e-11
3.65052e-11
2.07771e-11
5.387e-12
9.78648e-13
1.41115e-13
2.09941e-14
3.18628e-15
4.78662e-16
7.0968e-17
1.03402e-17
1.46288e-18
1.97952e-19
2.51292e-20
2.93383e-21
3.04927e-22
2.90135e-23
0.484991
0.743653
0.941033
0.995124
0.997838
0.998909
0.999339
0.99958
0.999711
0.999781
0.999817
0.999834
0.999837
0.999831
0.999813
0.999785
0.999744
0.999687
0.999615
0.99953
0.999441
0.999405
0.999582
0.531589
0.00716035
-1.72188e-06
-8.90062e-09
-6.8869e-12
1.5961e-10
6.27486e-11
2.67775e-11
1.01814e-11
1.76298e-12
2.56897e-13
3.44903e-14
4.77641e-15
6.76874e-16
9.55763e-17
1.335e-17
1.83308e-18
2.44192e-19
3.10338e-20
3.68784e-21
4.00366e-22
3.86654e-23
3.3785e-24
0.00133619
0.104602
0.347607
0.67856
0.896742
0.981286
0.995699
0.997219
0.998064
0.998516
0.998754
0.998866
0.998886
0.998848
0.998734
0.998552
0.998294
0.99793
0.997486
0.996962
0.996407
0.996232
0.997379
0.346449
5.43964e-05
-1.06719e-06
-3.24635e-10
7.90913e-13
3.0265e-11
4.74896e-11
1.31528e-11
3.37897e-12
4.77039e-13
6.06264e-14
7.67552e-15
1.0004e-15
1.33331e-16
1.778e-17
2.34942e-18
3.05028e-19
3.83566e-20
4.58859e-21
5.10591e-22
5.15548e-23
4.58693e-24
3.61728e-25
2.65991e-13
2.41518e-13
8.87846e-09
0.0656614
0.243758
0.488732
0.686725
0.816726
0.891908
0.932614
0.953607
0.963247
0.964818
0.96175
0.952162
0.9366
0.914395
0.883112
0.84573
0.802397
0.755532
0.743665
0.86031
0.177092
1.22253e-05
-6.08871e-07
-8.70199e-11
7.00911e-13
8.51112e-12
1.97642e-11
4.3685e-12
8.32428e-13
1.11484e-13
1.31692e-14
1.56734e-15
1.93085e-16
2.43634e-17
3.08395e-18
3.87112e-19
4.76872e-20
5.67703e-21
6.40477e-22
6.68427e-23
6.2826e-24
5.14971e-25
3.64592e-26
2.99184e-14
-1.22029e-14
0
-4.05524e-11
-6.54193e-12
0.00127371
0.0571288
0.135549
0.216632
0.286652
0.338874
0.368629
0.374718
0.362571
0.334244
0.294483
0.248557
0.202098
0.158127
0.120501
0.0875472
0.0791429
0.169906
0.0406317
6.43244e-07
-6.91383e-08
-4.3622e-11
1.211e-13
3.13469e-12
5.03582e-12
1.33124e-12
1.91664e-13
2.36204e-14
2.63776e-15
2.94694e-16
3.44091e-17
4.13249e-18
4.98934e-19
5.97364e-20
7.00647e-21
7.91871e-22
8.44441e-23
8.28138e-24
7.25341e-25
5.48965e-26
3.4831e-27
1.50977e-14
-7.7295e-15
-1.08485e-15
-4.558e-14
-3.55308e-13
-1.26737e-14
-5.416e-14
-8.21353e-13
-5.96114e-12
-1.89795e-11
-2.28916e-10
-6.54977e-10
7.38532e-21
-1.5294e-26
-1.2594e-50
1.92553e-26
-8.38456e-13
-1.77667e-12
-1.35409e-12
-3.63348e-12
-2.97244e-11
-2.23494e-10
-8.15045e-10
0
4.50575e-06
-1.84221e-08
-2.02851e-11
1.78194e-13
1.31571e-12
1.57614e-12
4.59193e-13
4.65618e-14
4.63994e-15
4.84092e-16
5.09479e-17
5.66172e-18
6.50447e-19
7.52545e-20
8.62867e-21
9.66913e-22
1.0404e-22
1.05115e-23
9.70483e-25
7.93626e-26
5.55463e-27
3.15875e-28
3.4567e-15
-5.40185e-16
-3.0099e-15
-1.63552e-13
-1.3526e-12
-1.63865e-13
-3.1917e-13
-5.25951e-12
-3.96405e-11
-1.28276e-10
-1.56129e-09
-4.4446e-09
-2.90147e-09
-1.1235e-09
-3.05735e-10
-8.79866e-11
-2.12759e-11
-1.21197e-11
-9.08999e-12
-2.46422e-11
-1.63617e-10
-9.12392e-10
-3.26777e-09
-4.46258e-09
-2.65293e-09
-2.16247e-09
-1.69243e-11
1.67272e-13
7.52939e-13
7.61172e-13
1.49011e-13
1.10669e-14
8.38355e-16
8.07237e-17
8.05853e-18
8.57858e-19
9.48238e-20
1.05654e-20
1.16499e-21
1.25163e-22
1.28588e-23
1.23382e-24
1.07456e-25
8.21934e-27
5.32933e-28
2.71535e-29
3.35647e-17
-4.73969e-16
-3.85461e-15
-1.98746e-13
-1.58426e-12
-1.562e-13
-4.80447e-13
-8.43704e-12
-6.58761e-11
-2.12729e-10
-2.25344e-09
-6.31563e-09
-4.13954e-09
-1.63469e-09
-4.65929e-10
-1.32265e-10
-4.49646e-11
-2.00687e-11
-2.03278e-11
-6.07855e-11
-3.83487e-10
-1.90425e-09
-6.08166e-09
-1.00195e-08
-6.73608e-09
-1.01709e-09
-3.62175e-12
2.761e-13
4.9252e-13
3.95615e-13
3.64845e-14
2.24163e-15
1.35482e-16
1.20928e-17
1.15767e-18
1.19142e-19
1.27615e-20
1.37705e-21
1.46685e-22
1.5166e-23
1.49225e-24
1.36323e-25
1.12234e-26
8.04497e-28
4.84083e-29
2.20669e-30
2.6032e-18
-1.5045e-16
-2.56823e-15
-1.12801e-13
-7.89094e-13
-9.17838e-14
-5.09899e-13
-9.24939e-12
-7.1451e-11
-2.2327e-10
-1.47878e-09
-3.79263e-09
-2.50168e-09
-1.15626e-09
-4.1675e-10
-1.20504e-10
-4.4258e-11
-2.15925e-11
-2.83745e-11
-1.15571e-10
-6.35998e-10
-2.69555e-09
-7.73975e-09
-1.30244e-08
-9.86398e-09
-4.89876e-11
-3.85663e-13
2.4772e-13
3.00969e-13
1.76169e-13
5.85982e-15
3.45914e-16
1.88909e-17
1.60418e-18
1.49756e-19
1.50799e-20
1.57867e-21
1.6604e-22
1.71727e-23
1.71567e-24
1.62218e-25
1.41482e-26
1.10363e-27
7.42859e-29
4.15558e-30
1.69149e-31
-1.62377e-19
-6.18347e-18
-8.45352e-16
-1.79582e-14
-4.81107e-14
-1.46893e-14
-4.23625e-13
-7.96758e-12
-5.74998e-11
-1.57393e-10
-2.64807e-10
-3.23476e-10
-3.22615e-10
-3.66101e-10
-1.9949e-10
-8.17519e-11
-3.21614e-11
-1.53788e-11
-3.05704e-11
-1.37599e-10
-6.32909e-10
-2.25475e-09
-5.71935e-09
-9.14111e-09
-7.03016e-09
-2.45928e-12
1.69367e-15
1.54043e-13
1.27517e-13
5.51696e-14
5.82095e-16
3.85233e-17
2.1982e-18
1.8556e-19
1.72819e-20
1.72794e-21
1.78589e-22
1.84436e-23
1.86267e-24
1.80642e-25
1.64733e-26
1.37584e-27
1.01943e-28
6.45808e-30
3.36514e-31
1.22014e-32
-4.95453e-20
-1.95026e-18
-2.19058e-16
-4.44875e-15
-6.98289e-16
-8.28285e-15
-3.31806e-13
-5.07301e-12
-3.11332e-11
-8.04476e-11
-1.32089e-10
-1.63743e-10
-1.7867e-10
-2.03191e-10
-1.10497e-10
-4.55931e-11
-1.73135e-11
-7.93623e-12
-2.05931e-11
-8.43828e-11
-2.90174e-10
-7.31331e-10
-1.27367e-09
-1.39129e-09
-7.39135e-10
1.30629e-18
1.96648e-13
5.00907e-14
2.87114e-14
8.91587e-15
3.49902e-17
3.08558e-18
2.0759e-19
1.84183e-20
1.76041e-21
1.77867e-22
1.83636e-23
1.87802e-24
1.86408e-25
1.76384e-26
1.55777e-27
1.25008e-28
8.82313e-30
5.27371e-31
2.56522e-32
8.2606e-34
-1.23611e-24
-1.97045e-22
-2.25278e-20
-2.07338e-18
-1.43489e-16
-6.30437e-15
-1.47115e-13
-1.61226e-12
-8.38002e-12
-2.10409e-11
-3.42619e-11
-4.6139e-11
-6.05004e-11
-7.25222e-11
-3.97685e-11
-1.61264e-11
-5.93725e-12
-2.73161e-12
-7.14936e-12
-2.7096e-11
-8.08878e-11
-1.76451e-10
-2.66657e-10
-2.53431e-10
-1.16862e-10
1.23513e-23
1.10766e-13
5.29332e-15
2.83626e-15
4.65862e-16
8.69473e-19
1.67531e-19
1.53786e-20
1.53593e-21
1.56119e-22
1.62889e-23
1.70379e-24
1.74275e-25
1.71285e-26
1.59056e-27
1.36674e-28
1.05779e-29
7.13428e-31
4.03461e-32
1.83635e-33
5.23174e-35
-4.14187e-27
-5.73941e-25
-4.47373e-23
-2.49917e-21
-1.05194e-19
-3.30727e-18
-7.61338e-17
-1.26735e-15
-1.51821e-14
-1.30233e-13
-7.88572e-13
-3.25685e-12
-8.5385e-12
-1.22223e-11
-6.90532e-12
-2.83073e-12
-9.7153e-13
-1.99886e-13
9.44439e-14
4.91914e-13
5.8406e-13
2.4879e-17
-6.03734e-13
-9.50158e-13
-4.86663e-13
1.9534e-14
1.37111e-14
2.46294e-16
1.06478e-16
1.87421e-18
3.52011e-20
4.62465e-21
7.57394e-22
1.02971e-22
1.18118e-23
1.30959e-24
1.41295e-25
1.46326e-26
1.43673e-27
1.31818e-28
1.1079e-29
8.30501e-31
5.37144e-32
2.88303e-33
1.23109e-34
3.08885e-36
0
-1.56307e-46
-6.33082e-44
-1.77207e-42
-9.49272e-41
-5.90509e-39
-3.33481e-37
-1.57866e-35
-6.48149e-34
-2.3182e-32
-7.24764e-31
-1.97896e-29
-4.70463e-28
-9.83173e-27
-1.85789e-25
-1.8673e-24
-2.26523e-23
7.94293e-16
6.98743e-14
4.45034e-13
9.01231e-13
1.038e-12
9.65419e-13
3.06118e-13
1.90759e-14
1.49638e-16
9.29061e-17
8.41713e-18
2.65056e-18
3.20356e-20
2.07521e-21
2.49248e-22
3.09831e-23
5.20175e-24
7.17404e-25
9.04207e-26
1.03385e-26
1.10118e-27
1.09214e-28
9.98078e-30
8.25594e-31
6.02363e-32
3.75106e-33
1.91748e-34
7.70405e-36
1.69311e-37
4.46924e-45
3.27696e-44
4.58977e-42
6.58142e-40
5.55708e-38
3.70223e-36
2.05507e-34
9.75768e-33
4.02165e-31
1.45221e-29
4.62825e-28
1.31037e-26
3.3153e-25
7.53514e-24
1.54547e-22
2.87147e-21
4.80545e-20
1.64034e-18
9.65014e-17
2.04624e-15
1.02537e-14
1.97006e-14
9.32154e-15
1.26394e-15
1.37858e-16
2.17496e-18
1.743e-19
5.12304e-19
9.40066e-20
1.93427e-21
1.09162e-22
1.54289e-23
1.71777e-24
2.54268e-25
3.70889e-26
5.1478e-27
6.4941e-28
7.32394e-29
7.45111e-30
6.85209e-31
5.62058e-32
4.01458e-33
2.41827e-34
1.18201e-35
4.48296e-37
8.55708e-39
9.34431e-62
-6.05552e-43
0
-1.26691e-40
-1.01236e-38
1.60416e-36
7.49817e-35
2.71301e-33
8.4731e-32
2.30851e-30
5.51467e-29
1.1397e-27
2.07193e-26
3.3537e-25
4.89908e-24
2.79088e-21
5.6805e-19
3.14034e-18
4.39961e-18
4.82947e-18
4.85146e-18
4.02637e-18
4.66995e-18
5.21351e-18
2.21441e-18
2.46364e-19
2.97519e-20
3.20825e-20
4.12855e-21
9.92996e-23
5.0957e-24
8.24331e-25
9.91173e-26
1.39644e-26
1.97341e-27
2.68936e-28
3.48926e-29
4.20935e-30
4.48572e-31
4.22149e-32
3.46699e-33
2.44177e-34
1.43077e-35
6.71787e-37
2.41387e-38
3.94413e-40
-9.73756e-44
-9.41575e-42
-4.27245e-40
-9.23513e-39
-5.4581e-39
-5.08257e-37
-1.90672e-35
-6.95776e-34
-2.23055e-32
-6.31644e-31
-1.58776e-29
-3.78198e-28
-8.1669e-27
-1.58252e-25
-2.80259e-24
1.11943e-22
7.73161e-21
4.502e-20
9.59685e-20
1.22604e-19
1.20817e-19
4.99127e-20
1.49118e-20
5.59373e-21
2.70228e-21
2.09147e-21
2.17977e-21
1.64399e-21
1.80057e-22
4.59062e-24
2.1505e-25
3.93458e-26
5.15148e-27
7.49077e-28
1.06538e-28
1.43226e-29
1.80664e-30
2.15719e-31
2.36362e-32
2.28533e-33
1.91438e-34
1.34249e-35
7.70662e-37
3.49559e-38
1.19498e-39
1.62821e-41
0
-2.62659e-53
-6.1138e-48
-1.26608e-45
-1.32414e-43
1.35592e-39
4.7477e-38
1.73842e-36
5.0727e-35
1.32083e-33
3.09437e-32
6.57054e-31
1.27143e-29
2.25093e-28
3.60736e-27
5.86207e-24
1.57396e-22
7.48528e-22
1.51388e-21
1.91352e-21
1.89924e-21
8.18011e-22
2.45237e-22
1.05636e-22
8.51272e-23
1.02616e-22
1.18871e-22
6.65373e-23
6.95532e-24
1.52833e-25
8.16394e-27
1.70279e-27
2.41056e-28
3.68139e-29
5.23768e-30
7.33635e-31
9.30752e-32
1.08132e-32
1.15347e-33
1.09539e-34
9.24806e-36
6.57047e-37
3.73445e-38
1.64845e-39
5.38824e-41
5.80653e-43
0
-4.57753e-50
-2.33722e-47
-2.80971e-45
-2.11018e-43
-3.06249e-41
-7.20565e-41
-3.5584e-39
-1.24139e-37
-3.6893e-36
-9.44876e-35
-2.17473e-33
-4.73391e-32
-1.05666e-30
-1.96939e-29
2.66242e-26
1.03208e-24
6.51646e-24
1.65399e-23
2.50571e-23
2.82485e-23
2.08725e-23
7.73519e-24
4.03078e-24
3.66566e-24
4.58143e-24
5.06113e-24
2.3515e-24
2.1911e-25
3.60896e-27
2.86116e-28
6.64506e-29
1.01645e-29
1.645e-30
2.40171e-31
3.41497e-32
4.49014e-33
5.26918e-34
5.53962e-35
5.12251e-36
4.13183e-37
2.78878e-38
1.59383e-39
6.93112e-41
2.18054e-42
1.649e-44
-2.23916e-51
-4.14141e-50
-4.20653e-48
-3.13948e-46
-1.79851e-44
-1.68008e-43
-6.72426e-42
-2.09824e-40
-5.71062e-39
-1.36973e-37
-2.96083e-36
-6.01563e-35
-1.11911e-33
-1.94816e-32
-2.03819e-31
5.90576e-30
1.68137e-27
3.33128e-26
1.6743e-25
3.79172e-25
5.33496e-25
5.74689e-25
3.53882e-25
1.63617e-25
1.40577e-25
1.66613e-25
1.76633e-25
7.3649e-26
6.4804e-27
7.11426e-29
9.99954e-30
2.40945e-30
3.89247e-31
6.68627e-32
1.02376e-32
1.45014e-33
1.98018e-34
2.38951e-35
2.54066e-36
2.36055e-37
1.84489e-38
1.15249e-39
5.81288e-41
2.51045e-42
7.72781e-44
4.59389e-46
-3.25275e-65
3.96955e-54
4.07101e-52
2.95127e-50
1.57907e-48
6.794e-47
2.09914e-45
8.3319e-44
2.42576e-42
6.16839e-41
1.41745e-39
2.95708e-38
5.65975e-37
9.96967e-36
1.66645e-34
6.46165e-33
3.27868e-30
1.61617e-28
1.45187e-27
4.89866e-27
8.85056e-27
1.07795e-26
1.05252e-26
5.83585e-27
4.48294e-27
4.81902e-27
4.9975e-27
2.11353e-27
1.98562e-28
1.20466e-30
4.23198e-31
8.65835e-32
1.36409e-32
2.46731e-33
3.9734e-34