/*--------------------------------*- C++ -*----------------------------------*\
  =========                 |
  \\      /  F ield         | OpenFOAM: The Open Source CFD Toolbox
   \\    /   O peration     | Website:  https://openfoam.org
    \\  /    A nd           | Version:  7
     \\/     M anipulation  |
\*---------------------------------------------------------------------------*/
FoamFile
{
    version     2.0;
    format      ascii;
    class       volScalarField;
    location    "0.15";
    object      epsilon;
}
// * * * * * * * * * * * * * * * * * * * * * * * * * * * * * * * * * * * * * //

dimensions      [0 2 -3 0 0 0 0];

internalField   nonuniform List<scalar> 
9072
(
0.0664706
0.21996
0.376862
0.507433
0.618716
0.715779
0.802053
0.880227
0.952572
1.02107
1.08746
1.15336
1.22033
1.28991
1.36371
1.44347
1.53108
1.62859
1.73825
1.86238
2.00323
2.16265
2.34146
2.53863
2.75013
2.96767
3.17768
3.36118
3.49541
3.55803
3.53115
3.39909
3.15959
2.86458
2.53712
2.20222
1.89022
1.62496
1.41749
1.26795
1.17131
1.11254
1.07581
1.05823
1.03513
0.897951
0.0975902
0.150936
0.202732
0.244518
0.278882
0.307943
0.333181
0.355694
0.376334
0.39579
0.414647
0.433423
0.452598
0.472646
0.494052
0.517333
0.543058
0.57185
0.604387
0.641374
0.683481
0.731225
0.784782
0.843723
0.90668
0.971017
1.03263
1.0861
1.12532
1.14475
1.14079
1.11372
1.0704
1.03437
0.989841
0.927563
0.8489
0.758925
0.666504
0.584805
0.528178
0.498828
0.49511
0.570329
0.830972
0.65222
0.138986
0.158643
0.186286
0.208253
0.225803
0.240289
0.252698
0.263763
0.274028
0.283914
0.293765
0.303878
0.314526
0.325978
0.338515
0.352444
0.368104
0.385876
0.40617
0.429409
0.455977
0.486136
0.519898
0.556849
0.595949
0.635353
0.672341
0.703483
0.725165
0.734449
0.730175
0.71432
0.692907
0.675601
0.663023
0.64454
0.611706
0.563575
0.507902
0.458057
0.426054
0.412748
0.423138
0.570288
1.00533
0.795117
0.172935
0.172997
0.187619
0.1995
0.208892
0.216561
0.223145
0.22914
0.234921
0.240771
0.246921
0.253565
0.260889
0.269074
0.27832
0.288846
0.300901
0.314761
0.330724
0.349083
0.370081
0.393842
0.420259
0.448867
0.47869
0.508134
0.534978
0.556563
0.570262
0.5742
0.568154
0.55443
0.538102
0.525469
0.518649
0.511444
0.496041
0.469665
0.437696
0.410436
0.3946
0.392939
0.469385
0.803361
1.25861
1.06385
0.201739
0.186902
0.192566
0.197734
0.201846
0.205214
0.208201
0.211123
0.214232
0.217716
0.221731
0.22641
0.231881
0.238277
0.245745
0.254453
0.26459
0.276368
0.290004
0.3057
0.323597
0.343712
0.365847
0.389483
0.413673
0.436983
0.457523
0.473156
0.481912
0.482598
0.475497
0.46294
0.449281
0.439399
0.435158
0.432423
0.42552
0.41255
0.397372
0.385866
0.382016
0.406351
0.681474
1.09136
1.46661
1.25683
0.226883
0.198901
0.197901
0.198214
0.198525
0.198818
0.199254
0.200016
0.201261
0.203108
0.205657
0.208996
0.213213
0.218403
0.224676
0.232159
0.240996
0.251341
0.263349
0.277143
0.29278
0.310189
0.329099
0.348957
0.36886
0.387527
0.403369
0.414696
0.420083
0.418861
0.41163
0.40061
0.389512
0.382302
0.380514
0.381157
0.380318
0.376999
0.37327
0.372314
0.384471
0.542648
1.04868
1.44391
1.51108
1.30194
0.249173
0.208859
0.202718
0.199418
0.196878
0.194841
0.193335
0.192453
0.192277
0.192878
0.194311
0.196629
0.199888
0.204153
0.209503
0.216028
0.223832
0.233021
0.243689
0.255891
0.269611
0.284707
0.300855
0.317493
0.33378
0.348602
0.360665
0.368692
0.371732
0.369539
0.362925
0.353935
0.3457
0.341468
0.342556
0.34676
0.351267
0.35493
0.358846
0.369476
0.445667
0.860642
1.37622
1.55829
1.41287
1.28784
0.269016
0.21702
0.206829
0.200804
0.196082
0.192225
0.189183
0.186985
0.185668
0.185262
0.185788
0.187272
0.189742
0.193238
0.19781
0.203516
0.210422
0.218588
0.228054
0.238816
0.250793
0.263788
0.277444
0.291209
0.304324
0.315854
0.324792
0.330236
0.331649
0.329126
0.323612
0.31696
0.311789
0.310791
0.315276
0.323393
0.332314
0.341084
0.353547
0.401782
0.679864
1.18377
1.51293
1.48212
1.25688
1.26037
0.286596
0.223709
0.210299
0.202196
0.195778
0.190472
0.186181
0.182899
0.180632
0.179378
0.179137
0.179908
0.181699
0.184524
0.188407
0.193378
0.199466
0.206689
0.215039
0.224459
0.234814
0.245867
0.257245
0.268422
0.278735
0.287429
0.293765
0.297179
0.297477
0.295024
0.29084
0.286572
0.2844
0.286601
0.29457
0.30632
0.319355
0.334688
0.372266
0.544295
0.965931
1.34266
1.45882
1.32569
1.10501
1.23906
0.301988
0.229224
0.213259
0.203555
0.195801
0.189321
0.183994
0.179799
0.176721
0.174738
0.173829
0.173975
0.175163
0.177386
0.180645
0.184942
0.190271
0.196615
0.203919
0.212084
0.220933
0.230198
0.239504
0.248367
0.256223
0.262491
0.266673
0.268494
0.268041
0.265874
0.263039
0.260977
0.261476
0.266346
0.276729
0.291689
0.310957
0.344359
0.467434
0.77073
1.12679
1.31368
1.31202
1.16059
0.977973
1.23086
0.315253
0.233809
0.215832
0.204882
0.19606
0.188613
0.182417
0.17744
0.173658
0.171037
0.169538
0.169127
0.169773
0.171451
0.174139
0.177812
0.182437
0.18796
0.194293
0.201295
0.208759
0.2164
0.22385
0.230674
0.236408
0.240627
0.243046
0.243626
0.242672
0.24088
0.23928
0.239122
0.241851
0.248716
0.2597
0.275544
0.307679
0.406554
0.626955
0.920393
1.12558
1.19576
1.15208
1.02029
0.88107
1.24336
0.326521
0.237659
0.218107
0.206176
0.196487
0.188237
0.1813
0.175649
0.171251
0.168065
0.166041
0.165131
0.165288
0.166469
0.168633
0.171733
0.175708
0.180475
0.185914
0.191854
0.198067
0.204258
0.210075
0.215134
0.219064
0.221582
0.222578
0.222202
0.220919
0.21951
0.218968
0.220376
0.224955
0.233369
0.243898
0.256684
0.322888
0.488454
0.732803
0.942247
1.04788
1.06268
1.01388
0.91398
0.816456
1.27958
0.33603
0.240926
0.22013
0.207414
0.197015
0.188091
0.180523
0.174286
0.169348
0.165663
0.163171
0.161812
0.161527
0.162259
0.163946
0.166523
0.169905
0.173983
0.178613
0.1836
0.188702
0.193621
0.198027
0.201586
0.204012
0.205141
0.205006
0.203902
0.202407
0.201347
0.201665
0.204304
0.210358
0.219923
0.230394
0.249989
0.356138
0.556436
0.768756
0.905959
0.952931
0.943463
0.905314
0.840154
0.785976
1.34599
0.344119
0.243726
0.221909
0.208556
0.197569
0.18808
0.179973
0.17323
0.167821
0.163695
0.160788
0.159029
0.158349
0.158676
0.159935
0.162039
0.164887
0.168348
0.172256
0.176403
0.180535
0.184359
0.187567
0.189873
0.191066
0.19108
0.190059
0.188405
0.186774
0.186009
0.186992
0.190534
0.197593
0.207559
0.217635
0.258625
0.394777
0.594047
0.76159
0.846669
0.860394
0.843256
0.822973
0.795057
0.79752
1.45643
0.351176
0.246131
0.223424
0.209539
0.198067
0.188106
0.179545
0.17237
0.166554
0.162045
0.158774
0.156664
0.155634
0.155602
0.156479
0.158164
0.160538
0.163453
0.16673
0.170146
0.173445
0.176341
0.17855
0.179827
0.180024
0.179154
0.177446
0.175378
0.173652
0.173112
0.17458
0.178742
0.186265
0.195783
0.20625
0.273855
0.426444
0.602589
0.728224
0.778185
0.774486
0.758839
0.760078
0.775886
0.866031
1.6405
0.357564
0.248157
0.22463
0.210291
0.198417
0.188072
0.179135
0.1716
0.165441
0.160605
0.157022
0.154607
0.153274
0.15293
0.153473
0.154791
0.156751
0.159193
0.161924
0.164716
0.16731
0.169432
0.170817
0.171259
0.170661
0.169095
0.166853
0.164465
0.162658
0.16226
0.164039
0.168622
0.176066
0.184267
0.20451
0.294038
0.443849
0.58802
0.678984
0.705883
0.694152
0.684605
0.708984
0.780823
1.01407
1.95422
0.124555
0.232453
0.316301
0.374437
0.413554
0.438726
0.453895
0.4625
0.467243
0.469453
0.470011
0.469335
0.468351
0.468055
0.468656
0.469573
0.470195
0.470331
0.470097
0.469674
0.469195
0.468709
0.468221
0.467699
0.467077
0.466258
0.465077
0.463295
0.460535
0.456236
0.44957
0.439306
0.423655
0.399985
0.364425
0.311313
0.232544
0.113578
0.125316
0.167021
0.209804
0.23937
0.258343
0.269744
0.276106
0.279533
0.281505
0.282636
0.283224
0.283339
0.283426
0.283979
0.28504
0.286211
0.287099
0.287584
0.28775
0.287725
0.28761
0.287455
0.287278
0.287078
0.286834
0.286513
0.28605
0.285339
0.284208
0.28238
0.27943
0.274685
0.267122
0.255184
0.236546
0.207997
0.166431
0.12636
0.149735
0.162213
0.188772
0.206232
0.215806
0.220173
0.221629
0.221826
0.221735
0.221679
0.221707
0.221744
0.221937
0.222496
0.223381
0.224322
0.225064
0.22552
0.225739
0.225802
0.22578
0.225712
0.225618
0.225507
0.225374
0.225211
0.22499
0.224664
0.224146
0.223286
0.221838
0.219395
0.215304
0.208545
0.197585
0.180471
0.156618
0.15418
0.175839
0.170365
0.18777
0.197715
0.200941
0.20028
0.198048
0.195671
0.193821
0.192624
0.191973
0.191684
0.191722
0.192112
0.192758
0.193458
0.194032
0.194411
0.194616
0.194701
0.194711
0.194678
0.194621
0.194552
0.194479
0.194405
0.194326
0.194229
0.194077
0.193796
0.19325
0.192193
0.190206
0.186618
0.180435
0.170581
0.158296
0.182647
0.201513
0.183215
0.195121
0.199402
0.197263
0.192148
0.186549
0.181749
0.178192
0.175831
0.174419
0.173676
0.173431
0.173582
0.173987
0.174472
0.174893
0.17519
0.175366
0.175449
0.175473
0.175459
0.175426
0.175389
0.175363
0.17536
0.175394
0.175474
0.175599
0.175749
0.175863
0.175807
0.175334
0.174029
0.171303
0.166763
0.163153
0.209479
0.226369
0.199039
0.208012
0.207384
0.199972
0.190338
0.181284
0.17398
0.168649
0.165053
0.162802
0.161511
0.1609
0.160769
0.160931
0.161217
0.1615
0.161716
0.161854
0.161927
0.161954
0.161952
0.161939
0.161932
0.161949
0.162012
0.162147
0.162382
0.162744
0.163249
0.163894
0.164634
0.165348
0.165823
0.165788
0.165404
0.168715
0.233923
0.250729
0.218141
0.2261
0.220619
0.207439
0.19281
0.179959
0.169928
0.162678
0.157747
0.154577
0.152662
0.151624
0.151176
0.151089
0.151183
0.151332
0.151466
0.151561
0.151616
0.15164
0.151647
0.151651
0.151671
0.151731
0.151858
0.152089
0.152467
0.153038
0.153851
0.154948
0.156349
0.158037
0.159957
0.162097
0.165075
0.174092
0.25583
0.277597
0.241668
0.249898
0.239061
0.219151
0.198722
0.181537
0.16845
0.159087
0.152701
0.148529
0.145925
0.14441
0.143616
0.143269
0.143171
0.143187
0.143236
0.143282
0.143312
0.143328
0.143339
0.143358
0.143405
0.143506
0.143696
0.144018
0.144528
0.145289
0.146376
0.147865
0.149831
0.152338
0.155459
0.159394
0.165145
0.178959
0.275281
0.306791
0.270765
0.280097
0.262974
0.234995
0.207699
0.185485
0.168935
0.15723
0.149258
0.144004
0.140656
0.138624
0.137458
0.13684
0.136546
0.136425
0.136384
0.136375
0.136375
0.136378
0.136389
0.13642
0.136491
0.136632
0.136882
0.137291
0.137924
0.138861
0.140193
0.142028
0.144482
0.147686
0.151819
0.157256
0.165327
0.183224
0.292455
0.333801
0.306487
0.317194
0.292551
0.254923
0.219508
0.191469
0.171001
0.156709
0.147021
0.140611
0.136474
0.133891
0.132335
0.131436
0.13094
0.130677
0.130542
0.130472
0.130436
0.130421
0.130428
0.130468
0.130561
0.13074
0.131046
0.131537
0.132286
0.133382
0.134936
0.137077
0.139957
0.143762
0.148756
0.155459
0.165491
0.186897
0.307571
0.350926
0.350409
0.361313
0.327637
0.278723
0.233886
0.199195
0.174353
0.157239
0.145715
0.138089
0.133128
0.129973
0.128013
0.126824
0.126122
0.125714
0.125479
0.125343
0.125266
0.125229
0.125229
0.125274
0.125387
0.1256
0.12596
0.126527
0.127383
0.128627
0.130381
0.132794
0.136047
0.140371
0.146102
0.153885
0.165588
0.190032
0.320862
0.353371
0.405545
0.412253
0.367538
0.305849
0.250412
0.208326
0.178708
0.158576
0.145126
0.136242
0.130438
0.126701
0.12433
0.122849
0.121937
0.121381
0.121044
0.120838
0.120716
0.120653
0.120642
0.12069
0.12082
0.121064
0.121473
0.122113
0.123068
0.124446
0.12638
0.129036
0.132618
0.137394
0.14376
0.152467
0.165607
0.192696
0.332566
0.372799
0.477128
0.46977
0.411001
0.335315
0.26844
0.218428
0.183757
0.160484
0.145064
0.134909
0.128261
0.123944
0.121165
0.119393
0.118274
0.11757
0.117127
0.11685
0.11668
0.116588
0.116563
0.116612
0.116756
0.117029
0.117484
0.11819
0.119236
0.120736
0.122834
0.125707
0.12958
0.134751
0.141668
0.151172
0.165554
0.194961
0.342915
0.495548
0.575246
0.533999
0.456369
0.365721
0.287077
0.228952
0.189149
0.162723
0.145348
0.133946
0.126475
0.121595
0.11842
0.116367
0.115044
0.114194
0.113648
0.113298
0.11308
0.112957
0.112917
0.112964
0.113119
0.113419
0.113916
0.114683
0.115813
0.117426
0.119672
0.122739
0.126869
0.132387
0.139783
0.14998
0.165444
0.196896
0.352138
0.853787
0.712546
0.604695
0.501776
0.395452
0.30527
0.23926
0.194491
0.165036
0.1458
0.133219
0.124972
0.119561
0.116014
0.113693
0.112177
0.111187
0.11054
0.110119
0.109852
0.109698
0.109642
0.109687
0.109852
0.110176
0.110712
0.111535
0.112743
0.114458
0.116838
0.12008
0.124439
0.130262
0.138078
0.14888
0.165292
0.198563
0.360455
1.52802
0.86239
0.675944
0.545195
0.422998
0.321947
0.248683
0.199378
0.167171
0.146251
0.132604
0.123654
0.117762
0.113874
0.111307
0.109612
0.108491
0.10775
0.107261
0.106947
0.106763
0.106691
0.106732
0.106907
0.107252
0.107825
0.108701
0.10998
0.11179
0.114291
0.11769
0.122253
0.128346
0.136532
0.147865
0.165114
0.200018
0.368052
0.363845
0.250006
0.22567
0.210868
0.198574
0.187809
0.17845
0.170494
0.163923
0.158689
0.154719
0.151924
0.150208
0.149468
0.14959
0.150444
0.151884
0.153735
0.155792
0.157822
0.159568
0.160771
0.161196
0.160681
0.159184
0.156842
0.154004
0.151237
0.149276
0.1489
0.150803
0.155547
0.162103
0.168242
0.214861
0.323124
0.446707
0.53982
0.586676
0.588873
0.572023
0.573784
0.631998
0.800056
1.23856
1.70723
0.37371
0.252123
0.226089
0.210536
0.197754
0.186595
0.176878
0.168578
0.161672
0.156108
0.151809
0.148682
0.146622
0.145515
0.145235
0.145639
0.146567
0.147834
0.149227
0.150512
0.151441
0.151775
0.151311
0.14993
0.147641
0.144629
0.14128
0.138177
0.136026
0.135554
0.137431
0.141798
0.147501
0.166694
0.247465
0.344343
0.417656
0.462855
0.479005
0.470503
0.45701
0.468549
0.541964
0.740017
1.18262
1.80869
0.383462
0.253444
0.225493
0.209142
0.195928
0.184493
0.174571
0.166096
0.159027
0.153299
0.14883
0.145519
0.143255
0.141915
0.141364
0.141451
0.142007
0.142841
0.14374
0.144473
0.144803
0.144511
0.143423
0.141455
0.138652
0.135234
0.131611
0.128362
0.126169
0.125737
0.127659
0.131328
0.136919
0.193135
0.285482
0.348683
0.379662
0.392114
0.390128
0.37779
0.368341
0.383322
0.452374
0.625906
0.998438
1.62281
0.393304
0.254216
0.224166
0.206948
0.193306
0.18165
0.171606
0.163061
0.15594
0.150163
0.145636
0.142249
0.139882
0.138405
0.137677
0.137541
0.137823
0.138331
0.138852
0.139163
0.139041
0.138286
0.136751
0.134384
0.131262
0.127634
0.123927
0.120722
0.118699
0.118546
0.120469
0.123493
0.151402
0.241931
0.316238
0.342876
0.343658
0.335665
0.323855
0.311003
0.305073
0.320258
0.37764
0.511629
0.782785
1.23252
0.403316
0.254664
0.222408
0.204258
0.190166
0.178294
0.168163
0.159596
0.152485
0.146726
0.142208
0.138812
0.136408
0.134861
0.13402
0.133727
0.133805
0.13406
0.134286
0.134268
0.133798
0.132697
0.130844
0.128214
0.124918
0.121231
0.117599
0.11461
0.11297
0.113274
0.115107
0.120365
0.190635
0.289906
0.332946
0.331037
0.3126
0.293087
0.276787
0.264983
0.261851
0.276149
0.3218
0.420525
0.605333
0.893923
0.413483
0.254933
0.220443
0.201322
0.18675
0.174652
0.164435
0.155861
0.148782
0.143071
0.138598
0.13523
0.132829
0.13125
0.13034
0.129935
0.129856
0.129915
0.129908
0.129632
0.128895
0.127536
0.125461
0.122675
0.119317
0.11569
0.11226
0.109645
0.108553
0.109255
0.111061
0.143801
0.251252
0.327283
0.33849
0.316377
0.286628
0.261468
0.243822
0.233639
0.232598
0.245786
0.28202
0.354488
0.479936
0.662323
0.423751
0.255112
0.218415
0.198315
0.183247
0.170906
0.160592
0.152007
0.144963
0.139307
0.134891
0.131567
0.129187
0.127599
0.126645
0.126158
0.12596
0.125864
0.125674
0.125197
0.124256
0.122711
0.120493
0.117633
0.114301
0.110827
0.107701
0.105591
0.105119
0.106141
0.110323
0.192105
0.307193
0.349196
0.335661
0.300585
0.264962
0.237771
0.22044
0.211906
0.212299
0.224338
0.253405
0.307207
0.393643
0.510594
0.434056
0.255251
0.216413
0.195351
0.179785
0.167192
0.156769
0.148161
0.141144
0.135538
0.131176
0.127898
0.125546
0.123961
0.122979
0.122431
0.122141
0.121923
0.12159
0.120958
0.119866
0.118195
0.115896
0.113029
0.109793
0.106543
0.103804
0.102268
0.10236
0.103719
0.130283
0.258621
0.348379
0.35851
0.327314
0.284646
0.246703
0.219552
0.20329
0.19617
0.197411
0.208238
0.23176
0.272241
0.332915
0.409656
0.444331
0.255376
0.214481
0.192495
0.176447
0.1636
0.15306
0.144418
0.137417
0.13185
0.127536
0.124301
0.121976
0.120397
0.119397
0.118803
0.118441
0.118128
0.117684
0.116937
0.115739
0.113988
0.111661
0.108841
0.105754
0.102782
0.1005
0.0995549
0.100083
0.102339
0.18436
0.320632
0.373483
0.358474
0.315578
0.269125
0.231078
0.205054
0.19011
0.18409
0.185711
0.195261
0.214369
0.245179
0.288504
0.339865
0.454515
0.255498
0.212642
0.189782
0.173275
0.160185
0.149527
0.140845
0.133849
0.128312
0.124036
0.120837
0.118537
0.116965
0.115951
0.115323
0.114904
0.114519
0.113992
0.113161
0.111893
0.110102
0.107787
0.105055
0.102156
0.0995022
0.0977116
0.0973373
0.0983381
0.110643
0.252624
0.36739
0.385586
0.35216
0.302056
0.254369
0.217499
0.193096
0.17947
0.174259
0.175926
0.184183
0.199705
0.223346
0.254697
0.289525
0.464555
0.25562
0.210898
0.187222
0.170291
0.156974
0.146204
0.137479
0.130482
0.124968
0.120723
0.117553
0.115273
0.113708
0.112685
0.112029
0.111568
0.111127
0.110539
0.109652
0.108342
0.106544
0.104272
0.101659
0.0989782
0.0966732
0.0953721
0.0954408
0.0967515
0.160527
0.324878
0.398916
0.388571
0.341991
0.287854
0.240561
0.205539
0.182919
0.17051
0.165879
0.167384
0.174396
0.186983
0.205238
0.228164
0.251988
0.47441
0.25574
0.209246
0.184815
0.167498
0.153977
0.143105
0.134341
0.127341
0.121844
0.117624
0.114478
0.112216
0.110658
0.109627
0.108951
0.108457
0.107976
0.107346
0.106422
0.105095
0.103312
0.101109
0.098637
0.0961935
0.094267
0.0934382
0.0939094
0.0970826
0.225427
0.378402
0.415474
0.384347
0.329333
0.2736
0.227756
0.194898
0.174051
0.162731
0.15852
0.159761
0.165632
0.175832
0.190015
0.206945
0.223341
0.484044
0.255852
0.207674
0.182551
0.16489
0.15119
0.140231
0.131434
0.124433
0.118952
0.114754
0.111629
0.109382
0.107829
0.106794
0.106104
0.105586
0.105077
0.104419
0.103476
0.102149
0.100401
0.0982826
0.0959667
0.0937715
0.092224
0.0918339
0.0928349
0.108846
0.301095
0.417454
0.422044
0.37572
0.315533
0.259795
0.215982
0.18537
0.166207
0.155853
0.151962
0.152913
0.157787
0.166066
0.177169
0.189795
0.201121
0.493436
0.255951
0.206171
0.180418
0.162455
0.148603
0.137575
0.128754
0.121757
0.116292
0.112115
0.109009
0.106775
0.105229
0.104192
0.103491
0.102958
0.102429
0.101755
0.100806
0.0994946
0.0977949
0.0957753
0.093626
0.0916891
0.0905012
0.0904604
0.0918395
0.171803
0.375507
0.44543
0.422753
0.364803
0.301516
0.246732
0.205218
0.176811
0.15921
0.149721
0.146097
0.146779
0.150813
0.157567
0.16634
0.175857
0.183687
0.502579
0.256032
0.204722
0.178398
0.160176
0.146203
0.135123
0.126291
0.119303
0.113856
0.1097
0.106613
0.104393
0.102854
0.101817
0.101109
0.100566
0.100027
0.0993457
0.0984018
0.0971156
0.0954747
0.093563
0.0915882
0.0899235
0.0890811
0.0893606
0.0917241
0.248997
0.427319
0.459702
0.417493
0.352002
0.287565
0.234483
0.195406
0.16911
0.152951
0.144247
0.140865
0.141326
0.144677
0.150232
0.157241
0.164495
0.169884
0.511488
0.25609
0.20331
0.176474
0.158037
0.143972
0.132862
0.124031
0.117059
0.111634
0.1075
0.104431
0.102225
0.100693
0.0996573
0.0989474
0.0983987
0.0978552
0.0971756
0.0962449
0.0949925
0.0934178
0.091619
0.0898216
0.0884342
0.0879268
0.0886431
0.0970343
0.322471
0.461766
0.463772
0.408068
0.338196
0.274025
0.22311
0.186489
0.162186
0.147356
0.139375
0.13623
0.136527
0.139336
0.143954
0.149624
0.155211
0.15887
0.520209
0.256125
0.20192
0.174626
0.156017
0.141893
0.130775
0.121958
0.11501
0.109611
0.1055
0.10245
0.100257
0.0987325
0.0977
0.09699
0.0964401
0.0958978
0.095226
0.0943157
0.0931043
0.0916017
0.0899194
0.0882993
0.087171
0.0869674
0.0883757
0.130928
0.402182
0.490467
0.464653
0.397518
0.324536
0.261242
0.21265
0.178413
0.155973
0.14237
0.135064
0.132159
0.132348
0.134735
0.138623
0.143267
0.147609
0.15002
0.528845
0.256145
0.200531
0.172833
0.154098
0.139949
0.128845
0.120058
0.113142
0.107773
0.103686
0.100654
0.0984737
0.0969568
0.0959277
0.095219
0.0946711
0.0941342
0.0934758
0.0925922
0.0914283
0.090004
0.0884427
0.0870032
0.0861128
0.086122
0.087544
0.244043
0.470773
0.511816
0.462487
0.386031
0.311096
0.249193
0.203031
0.1711
0.150408
0.137947
0.131277
0.128619
0.128747
0.13081
0.134126
0.137972
0.141366
0.142853
0.53758
0.25616
0.199122
0.171072
0.15226
0.138121
0.127056
0.118313
0.111439
0.106103
0.102043
0.0990289
0.0968594
0.0953484
0.0943219
0.093615
0.0930707
0.0925427
0.0919022
0.0910507
0.0899401
0.0885994
0.0871642
0.0859149
0.0852617
0.0855412
0.0883547
0.319494
0.509357
0.518516
0.454069
0.372472
0.297505
0.237727
0.194159
0.164478
0.145437
0.134047
0.127981
0.125573
0.125679
0.12749
0.13035
0.133566
0.136218
0.137004
0.546736
0.25618
0.197669
0.169322
0.150483
0.136393
0.125393
0.116711
0.109887
0.10459
0.100556
0.0975583
0.0953975
0.0938897
0.0928637
0.0921574
0.0916172
0.0911002
0.0904816
0.0896671
0.0886148
0.0873618
0.0860556
0.0850014
0.0845899
0.0852539
0.0929457
0.38556
0.530497
0.51483
0.441216
0.357643
0.284057
0.226898
0.185999
0.1585
0.141019
0.130635
0.125141
0.122983
0.123092
0.124705
0.127194
0.129895
0.131951
0.132186
0.556828
0.2562
0.196155
0.167566
0.148753
0.13475
0.123843
0.115239
0.108475
0.10322
0.099212
0.0962291
0.0940732
0.0925642
0.0915345
0.0908257
0.0902883
0.0897833
0.0891898
0.0884177
0.0874294
0.0862686
0.0850925
0.0842238
0.0840559
0.085398
0.117574
0.46258
0.553064
0.51187
0.428912
0.343447
0.271353
0.216841
0.17855
0.153131
0.137119
0.127679
0.122726
0.12081
0.120935
0.122385
0.124561
0.126829
0.128389
0.128175
0.568655
0.2562
0.194582
0.165799
0.147059
0.133182
0.122393
0.113886
0.107191
0.101982
0.0980017
0.0950299
0.0928736
0.0913571
0.0903172
0.0896004
0.0890621
0.0885683
0.0880025
0.0872786
0.0863626
0.0853019
0.0842592
0.083558
0.0835838
0.0854689
0.230211
0.544086
0.579471
0.511721
0.418026
0.33011
0.259372
0.207516
0.171787
0.148359
0.133722
0.125158
0.120707
0.119016
0.11916
0.120467
0.122365
0.124255
0.125388
0.124796
0.583445
0.256249
0.193008
0.164033
0.145398
0.131679
0.121036
0.112642
0.106029
0.100871
0.096917
0.0939524
0.091789
0.0902565
0.0891974
0.0884642
0.0879184
0.0874325
0.0868956
0.0862261
0.0853928
0.0844448
0.0835469
0.083009
0.0831821
0.0851182
0.36638
0.59692
0.593216
0.505944
0.404633
0.316018
0.247669
0.198781
0.165645
0.14415
0.130823
0.123069
0.119066
0.11757
0.117722
0.11889
0.120533
0.122079
0.122831
0.12191
0.603217
0.256917
0.191597
0.162304
0.143771
0.130236
0.119763
0.111502
0.104982
0.0998814
0.0959541
0.0929923
0.090814
0.0892552
0.0881654
0.0874043
0.0868415
0.0863572
0.0858478
0.0852378
0.0844989
0.0836798
0.0829467
0.0825914
0.0830107
0.0868836
0.42889
0.612924
0.584565
0.488142
0.386025
0.30033
0.235814
0.190436
0.160028
0.14045
0.128372
0.121374
0.117777
0.116442
0.116579
0.117602
0.118997
0.120222
0.120624
0.119407
0.630525
0.259061
0.190444
0.160645
0.142179
0.128845
0.118566
0.11046
0.104047
0.0990119
0.0951131
0.0921504
0.0899493
0.0883532
0.0872197
0.0864174
0.0858252
0.085333
0.084847
0.0842993
0.0836656
0.0829924
0.0824443
0.0822995
0.0830674
0.0919065
0.474075
0.607597
0.559854
0.461445
0.363611
0.283439
0.223953
0.182523
0.154936
0.137242
0.12635
0.120047
0.116807
0.115596
0.115693
0.116555
0.117701
0.118615
0.118689
0.117203
0.663628
0.261887
0.189116
0.158857
0.140585
0.127488
0.117436
0.10951
0.103224
0.0982643
0.0943984
0.0914335
0.0892034
0.0875605
0.0863713
0.0855146
0.0848799
0.0843689
0.0838994
0.0834137
0.0828934
0.082382
0.0820338
0.082135
0.0835326
0.114007
0.530555
0.601889
0.533025
0.433443
0.340718
0.266755
0.212644
0.175246
0.150434
0.134536
0.124744
0.119064
0.116126
0.114998
0.115025
0.115707
0.116594
0.117202
0.116964
0.11523
0.702961
0.264049
0.187072
0.156708
0.138817
0.126109
0.116346
0.108635
0.102501
0.0976352
0.0938123
0.0908495
0.08859
0.0868961
0.0856446
0.0847249
0.0840383
0.0834993
0.0830391
0.0826129
0.0822112
0.0818741
0.0817306
0.0820794
0.084346
0.22289
0.607835
0.605359
0.511909
0.408496
0.319651
0.251377
0.202366
0.168791
0.146583
0.132343
0.123543
0.118403
0.115706
0.114614
0.114539
0.115019
0.115635
0.115937
0.115399
0.113434
0.771964
0.265475
0.18375
0.154075
0.136856
0.12465
0.115273
0.107819
0.101861
0.0971102
0.093348
0.0904007
0.088122
0.0863848
0.0850769
0.0840986
0.0833632
0.082798
0.082347
0.0819786
0.0816953
0.0815368
0.0815979
0.0821404
0.0842019
0.432292
0.654863
0.599675
0.489588
0.384623
0.300117
0.237418
0.19324
0.163228
0.143407
0.130663
0.122734
0.118046
0.115521
0.114417
0.114202
0.114456
0.114788
0.114779
0.113949
0.111776
0.885463
0.271786
0.176962
0.151176
0.13488
0.123201
0.114229
0.107083
0.101327
0.0967069
0.0930231
0.0901109
0.0878338
0.0860754
0.084734
0.0837196
0.0829554
0.0823786
0.0819421
0.0816245
0.0814402
0.0814485
0.0817576
0.0829467
0.0881347
0.484318
0.628071
0.561271
0.454944
0.357412
0.280591
0.224414
0.185148
0.158528
0.140899
0.129486
0.122302
0.117971
0.115548
0.114377
0.113984
0.113986
0.11402
0.113698
0.112583
0.110217
0.871812
0.311638
0.197649
0.15295
0.134659
0.122331
0.113448
0.10652
0.100948
0.0964535
0.0928593
0.0900028
0.0877518
0.0859985
0.0846516
0.083629
0.0828614
0.0822945
0.0818874
0.0816251
0.0815343
0.0817134
0.0823671
0.0865447
0.117409
0.490649
0.552873
0.495436
0.40842
0.326424
0.260711
0.212181
0.178008
0.154658
0.139041
0.128797
0.122231
0.118158
0.115761
0.114468
0.113857
0.11358
0.113303
0.112667
0.111276
0.108734
0.856519
0.336336
0.216048
0.168816
0.143222
0.126342
0.114195
0.106775
0.101082
0.0965441
0.0929361
0.090082
0.0878437
0.0861161
0.0848125
0.0838655
0.083229
0.0828743
0.0828342
0.0831995
0.0842376
0.0855509
0.0852496
0.10818
0.306771
0.464089
0.47645
0.428441
0.360922
0.295609
0.241765
0.201092
0.171912
0.151629
0.137822
0.128578
0.122496
0.118579
0.116132
0.114661
0.113792
0.113211
0.112611
0.111662
0.110008
0.107306
0.836034
0.343933
0.225144
0.176348
0.15043
0.133608
0.121737
0.113144
0.106745
0.102069
0.0989715
0.0972993
0.096825
0.0976454
0.0997932
0.103696
0.109645
0.117182
0.12721
0.140189
0.157191
0.180301
0.214749
0.277791
0.380813
0.434549
0.42033
0.375688
0.321127
0.269016
0.225408
0.191751
0.167053
0.149486
0.137234
0.128803
0.123064
0.1192
0.116626
0.114921
0.113758
0.112851
0.11192
0.110662
0.108759
0.105918
0.821243
0.336641
0.226061
0.178338
0.152907
0.137039
0.126045
0.118082
0.11245
0.10893
0.107373
0.107658
0.109697
0.113535
0.11929
0.127236
0.137677
0.150883
0.167659
0.188937
0.216252
0.251865
0.298209
0.353035
0.399509
0.408043
0.380691
0.337642
0.291182
0.248376
0.212598
0.184586
0.163581
0.148255
0.137254
0.129429
0.123889
0.119972
0.117199
0.11521
0.11372
0.112471
0.111207
0.109649
0.107515
0.104557
0.816269
0.323894
0.221359
0.177136
0.153208
0.13849
0.128672
0.121988
0.117759
0.115733
0.115802
0.117925
0.122119
0.128466
0.137109
0.148267
0.162236
0.179435
0.200523
0.226322
0.257751
0.29514
0.336254
0.373084
0.391625
0.381875
0.350284
0.310056
0.269625
0.233473
0.203431
0.179676
0.161508
0.147899
0.13782
0.130386
0.124901
0.120835
0.117796
0.115481
0.113641
0.112042
0.110448
0.108606
0.106263
0.103212
0.822918
0.313103
0.215452
0.174588
0.152523
0.139207
0.130725
0.125398
0.122541
0.121897
0.123389
0.127036
0.132912
0.14113
0.151836
0.165217
0.181506
0.201002
0.224069
0.251001
0.281682
0.314727
0.346075
0.36816
0.372437
0.356136
0.325453
0.289451
0.254302
0.223247
0.197429
0.176787
0.160683
0.148293
0.138818
0.131573
0.126011
0.121712
0.118355
0.115685
0.113482
0.111534
0.109623
0.107517
0.104993
0.101875
0.839331
0.308267
0.211542
0.172445
0.151699
0.139538
0.132237
0.128137
0.12651
0.127075
0.12977
0.134639
0.141776
0.151302
0.163342
0.178025
0.195466
0.215754
0.238882
0.264565
0.291877
0.318622
0.340763
0.352787
0.350082
0.332525
0.304979
0.273744
0.243397
0.216468
0.193851
0.175473
0.160815
0.149227
0.140085
0.132855
0.127109
0.122515
0.118807
0.115769
0.113205
0.11092
0.108713
0.106371
0.103695
0.100541
0.858319
0.30774
0.210173
0.171621
0.151464
0.139957
0.133429
0.13021
0.129523
0.131043
0.134681
0.140468
0.148489
0.15884
0.171606
0.186828
0.204485
0.224444
0.24637
0.269559
0.292667
0.313407
0.328489
0.3343
0.328557
0.311994
0.28821
0.261582
0.2355
0.211999
0.191886
0.175181
0.161523
0.150424
0.141411
0.134072
0.128073
0.123148
0.11908
0.11568
0.112772
0.110176
0.107703
0.105159
0.102368
0.0992064
0.87295
0.3089
0.21041
0.171965
0.151972
0.140694
0.134527
0.131805
0.131711
0.133869
0.138145
0.144531
0.153076
0.163833
0.176825
0.192002
0.20921
0.228133
0.248212
0.268521
0.287624
0.303497
0.313698
0.315984
0.309311
0.294596
0.274443
0.251905
0.229498
0.208864
0.190766
0.17534
0.162388
0.151579
0.14257
0.135054
0.128775
0.123519
0.119107
0.115372
0.112153
0.109283
0.106584
0.103878
0.101008
0.0978711
0.881773
0.310314
0.211448
0.173075
0.153078
0.141778
0.135666
0.13311
0.133277
0.135752
0.140351
0.147019
0.155754
0.166555
0.179377
0.194086
0.21042
0.227941
0.245968
0.263513
0.279237
0.291489
0.298532
0.299002
0.292479
0.27981
0.262866
0.243799
0.224484
0.206253
0.189821
0.175425
0.163012
0.152393
0.143341
0.13564
0.129097
0.123544
0.11883
0.114808
0.111326
0.108229
0.105351
0.102528
0.0996184
0.0965377
0.884888
0.311221
0.212656
0.174505
0.154503
0.143081
0.136841
0.134214
0.134375
0.136885
0.141521
0.148181
0.15681
0.167353
0.179701
0.193651
0.208869
0.224848
0.240872
0.25599
0.269037
0.278714
0.283804
0.283475
0.277597
0.266873
0.252651
0.236462
0.219723
0.203515
0.188503
0.174995
0.163053
0.152607
0.143533
0.135691
0.128943
0.123159
0.118209
0.113962
0.110279
0.107012
0.104008
0.101114
0.0982055
0.095211
0.88286
0.311281
0.21362
0.175883
0.155952
0.1444
0.137952
0.135108
0.135072
0.137398
0.141836
0.148243
0.156521
0.166564
0.178211
0.191214
0.205194
0.219624
0.233804
0.246873
0.257848
0.265725
0.26964
0.26907
0.264009
0.255009
0.243047
0.229231
0.21464
0.200162
0.186406
0.173719
0.162252
0.152029
0.143007
0.135111
0.128249
0.122322
0.11722
0.112827
0.109012
0.105638
0.102562
0.0996463
0.0967782
0.0938978
0.876438
0.31041
0.214113
0.176949
0.15718
0.145539
0.138864
0.135729
0.135375
0.137362
0.141423
0.147388
0.155122
0.16448
0.175267
0.187203
0.199897
0.212829
0.225349
0.236698
0.246064
0.252663
0.255866
0.25533
0.251086
0.243556
0.233452
0.221609
0.208835
0.195871
0.18327
0.171396
0.160457
0.150547
0.141687
0.133851
0.126988
0.121023
0.115866
0.11141
0.107538
0.104122
0.101031
0.0981391
0.0953481