/*--------------------------------*- C++ -*----------------------------------*\
  =========                 |
  \\      /  F ield         | OpenFOAM: The Open Source CFD Toolbox
   \\    /   O peration     | Website:  https://openfoam.org
    \\  /    A nd           | Version:  7
     \\/     M anipulation  |
\*---------------------------------------------------------------------------*/
FoamFile
{
    version     2.0;
    format      ascii;
    class       volScalarField;
    location    "0.15";
    object      k;
}
// * * * * * * * * * * * * * * * * * * * * * * * * * * * * * * * * * * * * * //

dimensions      [0 2 -2 0 0 0 0];

internalField   nonuniform List<scalar> 
9072
(
0.00479417
0.00872508
0.0125145
0.0152716
0.017441
0.0192316
0.0207587
0.0220976
0.0233031
0.0244175
0.0254744
0.0265024
0.0275268
0.0285706
0.0296564
0.0308066
0.032044
0.0333917
0.034873
0.0365099
0.038321
0.0403177
0.0424979
0.0448388
0.0472873
0.0497506
0.0520906
0.0541248
0.0556403
0.0564269
0.0563105
0.0551241
0.0527468
0.0495653
0.0458657
0.041847
0.0378406
0.0341882
0.0311324
0.0287832
0.0271655
0.0261362
0.0255094
0.0252147
0.0248373
0.0227186
0.00833035
0.018597
0.0256718
0.0308736
0.0348884
0.0381094
0.0407779
0.0430552
0.0450561
0.0468672
0.0485565
0.0501805
0.0517877
0.053422
0.0551246
0.0569352
0.0588926
0.0610346
0.063396
0.0660063
0.0688837
0.0720278
0.0754086
0.0789531
0.0825312
0.0859437
0.0889187
0.0911247
0.0922078
0.0918549
0.0898726
0.086273
0.0812097
0.0746844
0.06779
0.0613807
0.0558156
0.0509947
0.0467463
0.0431157
0.0402005
0.0379823
0.036183
0.0337534
0.0324227
0.029261
0.0105626
0.0234706
0.0320256
0.0383367
0.0432257
0.0471488
0.0503947
0.0531619
0.0555934
0.057797
0.0598576
0.0618446
0.0638179
0.0658308
0.0679327
0.0701706
0.0725892
0.0752308
0.0781324
0.0813222
0.0848124
0.0885901
0.0926043
0.0967515
0.100861
0.104683
0.107891
0.110102
0.110927
0.110044
0.107304
0.102838
0.097076
0.0905602
0.0837363
0.0769489
0.0703678
0.0641521
0.0585548
0.0539293
0.050542
0.0480108
0.0451415
0.041103
0.0423953
0.0326157
0.0122297
0.0269466
0.0364229
0.0433873
0.0487937
0.053138
0.0567341
0.0598015
0.0624999
0.0649503
0.0672478
0.0694703
0.0716842
0.0739481
0.0763159
0.0788375
0.0815594
0.0845236
0.0877647
0.0913049
0.0951467
0.0992625
0.103582
0.107976
0.112247
0.116116
0.119235
0.121209
0.121653
0.120277
0.116988
0.111993
0.105815
0.0991117
0.092321
0.0856232
0.0790311
0.0726792
0.0669259
0.0622142
0.0587834
0.0564481
0.0566866
0.0597406
0.063404
0.0408043
0.0135606
0.0297114
0.0398689
0.0472814
0.0530357
0.0576649
0.0615007
0.0647758
0.0676609
0.0702855
0.0727518
0.0751434
0.0775309
0.0799763
0.0825351
0.085258
0.0881905
0.0913714
0.0948297
0.0985788
0.102609
0.106878
0.111295
0.115715
0.11992
0.123621
0.126469
0.128085
0.128119
0.126329
0.122683
0.117432
0.111124
0.104414
0.0977194
0.0911526
0.0847209
0.0786054
0.073174
0.068798
0.0655346
0.0643338
0.0780405
0.0877383
0.0826775
0.0463878
0.0146721
0.0320046
0.0427142
0.0504642
0.0564688
0.0613006
0.0653081
0.0687334
0.0717546
0.0745071
0.077098
0.0796144
0.0821298
0.0847075
0.0874035
0.090267
0.0933406
0.0966577
0.100239
0.104089
0.108182
0.112463
0.116824
0.121106
0.125085
0.128475
0.130944
0.132152
0.131801
0.129714
0.125912
0.120671
0.114509
0.108014
0.101542
0.0951824
0.0890054
0.0832629
0.0783236
0.0743632
0.0716189
0.0800717
0.108737
0.115877
0.092411
0.04814
0.0156241
0.0339441
0.0451227
0.0531463
0.0593421
0.0643241
0.0684577
0.0719935
0.0751151
0.0779621
0.0806448
0.0832528
0.0858606
0.088532
0.0913218
0.0942766
0.0974341
0.100821
0.104449
0.108309
0.112366
0.116546
0.120732
0.124755
0.128394
0.131377
0.133409
0.134199
0.133518
0.13126
0.127494
0.122502
0.116744
0.110687
0.10457
0.0984756
0.0926017
0.0873096
0.0828285
0.079283
0.0815858
0.111224
0.137668
0.128594
0.0932663
0.0479967
0.0164482
0.0355989
0.0471851
0.055443
0.0617947
0.0668935
0.0711226
0.074741
0.077937
0.0808534
0.0836027
0.0862757
0.0889475
0.0916809
0.0945287
0.0975335
0.100727
0.104129
0.107739
0.111538
0.115476
0.119468
0.123389
0.127066
0.130287
0.132809
0.134378
0.134767
0.133822
0.131506
0.127937
0.123389
0.118253
0.112855
0.107234
0.10145
0.0959113
0.0909536
0.0867661
0.0867867
0.109
0.143745
0.153743
0.129055
0.0896142
0.0474345
0.0171616
0.0370126
0.0489584
0.0574256
0.0639124
0.0691079
0.0734127
0.0770945
0.080346
0.0833128
0.0861089
0.088826
0.0915386
0.0943082
0.0971844
0.100205
0.103396
0.106767
0.110309
0.113989
0.117747
0.121487
0.125078
0.128351
0.13111
0.133144
0.13425
0.134269
0.133123
0.130843
0.127587
0.123616
0.119258
0.114727
0.10981
0.104421
0.0990071
0.0940553
0.0927548
0.107477
0.142798
0.164224
0.155926
0.123669
0.0853456
0.0468583
0.017774
0.0382131
0.0504814
0.0591419
0.0657527
0.0710337
0.0754023
0.0791347
0.0824283
0.0854314
0.0882594
0.091004
0.0937392
0.0965241
0.0994049
0.102414
0.105571
0.108876
0.112311
0.115831
0.119364
0.122809
0.126031
0.128869
0.131147
0.13269
0.133351
0.133039
0.131747
0.129571
0.126697
0.12337
0.119868
0.11635
0.11242
0.107513
0.101844
0.0990213
0.109957
0.139143
0.166214
0.169106
0.150374
0.117139
0.0821487
0.0464714
0.0182935
0.0392195
0.0517824
0.0606266
0.0673562
0.0727175
0.0771432
0.0809182
0.0842449
0.0872743
0.0901229
0.0928826
0.0956261
0.0984103
0.101277
0.104255
0.107354
0.110568
0.113867
0.117198
0.12048
0.123605
0.12644
0.128834
0.130634
0.131705
0.131951
0.131349
0.129958
0.127928
0.125466
0.122794
0.120141
0.117613
0.114815
0.11103
0.108169
0.11613
0.138563
0.164675
0.17432
0.165373
0.142991
0.112065
0.080561
0.0464858
0.0187292
0.0400484
0.0528843
0.061906
0.0687525
0.0741922
0.0786719
0.0824852
0.0858392
0.088888
0.0917493
0.0945149
0.0972563
0.100028
0.102868
0.105798
0.108823
0.111928
0.115075
0.118201
0.12122
0.124018
0.126466
0.128426
0.129769
0.130398
0.13027
0.129419
0.127966
0.126102
0.124052
0.122012
0.120159
0.118479
0.11667
0.115126
0.118609
0.136514
0.161224
0.175879
0.173892
0.159259
0.136901
0.10947
0.0807692
0.0471779
0.0190934
0.0407182
0.0538075
0.0630011
0.0699634
0.0754812
0.0800141
0.0838634
0.0872415
0.0903053
0.093174
0.0959393
0.0986714
0.101422
0.104226
0.107099
0.11004
0.113027
0.116014
0.11893
0.121684
0.124161
0.126237
0.127787
0.128706
0.128934
0.128475
0.127416
0.125929
0.12424
0.122581
0.121133
0.120016
0.119043
0.117978
0.118554
0.130204
0.154127
0.174179
0.179421
0.170547
0.153661
0.133141
0.109534
0.0833145
0.0486414
0.0194011
0.0412508
0.0545715
0.0639297
0.0710056
0.0766015
0.0811872
0.0850717
0.0884722
0.0915487
0.0944217
0.0971829
0.0999014
0.102626
0.105388
0.1082
0.111052
0.113918
0.116743
0.119453
0.121952
0.124124
0.125853
0.127025
0.127562
0.127434
0.126689
0.12546
0.123958
0.122441
0.121141
0.120227
0.119759
0.119404
0.119069
0.123481
0.142265
0.166611
0.180462
0.179039
0.166416
0.149317
0.131633
0.112168
0.0891727
0.0511443
0.0196683
0.0416711
0.0551958
0.0647072
0.0718922
0.0775646
0.082203
0.0861224
0.0895448
0.092633
0.0955089
0.0982643
0.100967
0.103664
0.106382
0.10913
0.111894
0.11464
0.11731
0.119824
0.122082
0.123974
0.125385
0.12622
0.126418
0.125981
0.124992
0.123623
0.122121
0.120761
0.119778
0.119324
0.11939
0.119564
0.120437
0.130098
0.152938
0.174057
0.182142
0.176352
0.162062
0.14602
0.13181
0.117266
0.0997654
0.0552807
0.0199091
0.0420032
0.0556976
0.0653461
0.0726327
0.0783784
0.0830682
0.0870223
0.0904666
0.0935665
0.0964453
0.0991948
0.101882
0.104551
0.107226
0.109912
0.112591
0.115223
0.117746
0.120078
0.122117
0.123754
0.124883
0.125419
0.125322
0.124619
0.123423
0.121939
0.120438
0.119212
0.118494
0.118422
0.118877
0.119438
0.122697
0.137828
0.160945
0.177224
0.180564
0.172076
0.157446
0.143214
0.1329
0.124725
0.116866
0.0620879
0.0093429
0.0175133
0.0238892
0.0283076
0.0312813
0.0331964
0.0343544
0.0350138
0.0353767
0.0355462
0.0355892
0.0355394
0.0354652
0.035439
0.0354772
0.0355404
0.0355841
0.035593
0.0355747
0.0355421
0.0355051
0.0354674
0.0354295
0.0353889
0.0353404
0.0352766
0.0351849
0.0350467
0.0348334
0.0345021
0.0339899
0.0332035
0.0320074
0.0302034
0.0274998
0.023471
0.017507
0.00928135
0.0105614
0.0222818
0.0299893
0.0351789
0.0385526
0.0406537
0.0419068
0.0426251
0.0430235
0.0432192
0.0432831
0.043258
0.0431979
0.043157
0.0431543
0.0431705
0.0431771
0.043162
0.0431286
0.0430851
0.0430385
0.0429911
0.0429422
0.0428882
0.0428223
0.0427348
0.0426101
0.0424255
0.0421474
0.0417265
0.0410923
0.0401428
0.0387311
0.0366437
0.0335638
0.0290079
0.0221621
0.0106264
0.0119054
0.0261328
0.0348706
0.0406104
0.044264
0.0464981
0.0478226
0.0485909
0.0490286
0.04926
0.0493576
0.0493664
0.0493328
0.0492983
0.0492829
0.0492782
0.0492664
0.0492385
0.0491966
0.0491465
0.0490932
0.0490381
0.0489797
0.0489134
0.0488315
0.048722
0.0485674
0.0483417
0.0480077
0.0475118
0.0467778
0.0456975
0.0441157
0.0418073
0.0384357
0.0334729
0.0259378
0.0121487
0.0132623
0.0295442
0.0390759
0.0451717
0.0489722
0.0512571
0.0526011
0.0533846
0.0538385
0.0540897
0.0542099
0.0542435
0.0542306
0.0542038
0.0541828
0.0541658
0.054142
0.0541056
0.054058
0.0540032
0.053945
0.0538837
0.0538172
0.0537403
0.0536438
0.0535148
0.0533337
0.0530724
0.0526912
0.0521336
0.0513201
0.0501388
0.0484296
0.0459604
0.0423814
0.0371296
0.0290772
0.0136114
0.0145342
0.0327663
0.0429503
0.0492673
0.0531089
0.0553711
0.0566832
0.0574435
0.0578847
0.0581326
0.0582568
0.0582999
0.0582959
0.0582708
0.0582433
0.0582153
0.0581811
0.0581371
0.0580843
0.0580254
0.0579629
0.0578963
0.0578227
0.057736
0.0576264
0.0574796
0.0572746
0.056982
0.0565599
0.0559503
0.0550718
0.0538102
0.0520032
0.0494142
0.0456837
0.0402174
0.0317513
0.014921
0.0157169
0.0358922
0.0466547
0.0531065
0.0569096
0.0590869
0.0603194
0.0610188
0.0614163
0.0616354
0.0617425
0.0617773
0.0617678
0.0617354
0.0616969
0.0616562
0.0616108
0.0615585
0.0614998
0.0614365
0.0613696
0.0612978
0.0612175
0.0611217
0.061
0.0608368
0.0606102
0.0602894
0.0598316
0.0591773
0.0582443
0.0569175
0.0550329
0.0523514
0.0485048
0.0428685
0.0340526
0.0160661
0.0168474
0.038901
0.0502496
0.0567999
0.0605128
0.0625547
0.0636637
0.0642645
0.0645869
0.0647504
0.064818
0.0648257
0.0647957
0.0647455
0.0646897
0.0646328
0.064574
0.0645115
0.0644456
0.0643768
0.0643048
0.0642276
0.0641405
0.064036
0.0639027
0.0637243
0.0634779
0.0631317
0.062642
0.0619489
0.0609696
0.0595883
0.0576405
0.0548845
0.050944
0.0451647
0.0360415
0.0170594
0.0180615
0.0417005
0.0537264
0.0603996
0.0640031
0.0658725
0.0668177
0.0672829
0.0674978
0.0675787
0.0675839
0.0675459
0.0674797
0.0674008
0.0673205
0.0672429
0.0671674
0.0670924
0.0670173
0.0669414
0.0668632
0.0667798
0.0666857
0.0665725
0.066428
0.0662352
0.0659703
0.0656009
0.0650828
0.0643554
0.0633358
0.0619082
0.0599073
0.0570889
0.0530684
0.0471631
0.0377643
0.0179183
0.0193267
0.0442327
0.0570247
0.0639161
0.067431
0.0691058
0.0698509
0.0701434
0.0702187
0.0701896
0.0701101
0.0700078
0.0698909
0.0697724
0.0696602
0.0695567
0.0694608
0.0693704
0.0692838
0.0691989
0.0691132
0.0690226
0.0689208
0.0687986
0.068643
0.0684363
0.0681541
0.0677633
0.0672193
0.0664614
0.0654064
0.0639385
0.0618916
0.059019
0.0549274
0.0489076
0.0392592
0.0186608
0.0204455
0.0464154
0.0600525
0.0673324
0.0708235
0.0722975
0.0728098
0.0728935
0.072797
0.0726318
0.0724462
0.0722617
0.0720809
0.0719127
0.0717612
0.0716266
0.0715065
0.0713977
0.0712969
0.071201
0.0711062
0.0710073
0.070897
0.0707653
0.0705986
0.0703783
0.0700795
0.0696688
0.0691011
0.0683155
0.0672289
0.0657252
0.0636375
0.0607162
0.0565599
0.0504342
0.0405586
0.019303
0.0211231
0.0482094
0.0627405
0.0706278
0.0741946
0.0754734
0.0757231
0.0755627
0.0752636
0.0749376
0.0746267
0.0743443
0.0740876
0.0738606
0.0736632
0.0734927
0.0733446
0.0732142
0.0730969
0.072988
0.0728825
0.0727739
0.0726542
0.0725124
0.0723342
0.0721006
0.0717859
0.0713563
0.0707666
0.0699557
0.0688404
0.0673043
0.0651797
0.0622139
0.0579972
0.051773
0.0416904
0.0198598
0.0211935
0.0497288
0.0651462
0.0738227
0.0775598
0.0786478
0.0786043
0.0781656
0.0776357
0.0771272
0.0766745
0.0762809
0.0759384
0.0756451
0.0753961
0.0751854
0.0750061
0.0748515
0.0747154
0.0745916
0.0744737
0.0743543
0.0742241
0.0740717
0.0738817
0.0736347
0.0733046
0.072857
0.0722467
0.0714124
0.0702707
0.068705
0.0665464
0.0635392
0.059266
0.0529498
0.042679
0.0203444
0.0219128
0.051367
0.0676047
0.0770467
0.0809574
0.0818285
0.0814543
0.0807042
0.0799186
0.0792098
0.078603
0.0780878
0.0776522
0.077287
0.0769823
0.0767281
0.076515
0.076334
0.0761772
0.0760369
0.0759053
0.0757739
0.0756325
0.0754687
0.0752667
0.0750063
0.074661
0.0741963
0.0735665
0.0727103
0.0715442
0.069951
0.0677607
0.0647147
0.0603884
0.0539868
0.0435454
0.0207688
0.0264101
0.0545105
0.0708803
0.0805992
0.0844673
0.0850234
0.0842635
0.0831691
0.0821077
0.0811862
0.0804165
0.079774
0.0792411
0.0788009
0.078438
0.0781384
0.0778897
0.0776809
0.0775021
0.077344
0.0771977
0.0770533
0.0768999
0.0767243
0.0765101
0.0762363
0.0758762
0.075395
0.0747467
0.0738699
0.0726809
0.071062
0.0688421
0.0657597
0.0613836
0.0549031
0.0443078
0.021144
0.0382396
0.0615371
0.076088
0.0849154
0.0882063
0.0882405
0.0870144
0.0855422
0.0841909
0.0830504
0.0821137
0.0813431
0.0807121
0.0801963
0.0797746
0.079429
0.0791442
0.0789069
0.0787054
0.0785289
0.078367
0.0782092
0.0780434
0.0778557
0.0776289
0.0773419
0.0769673
0.0764701
0.0758042
0.074908
0.0736974
0.0720545
0.0698068
0.0666902
0.0622677
0.0557149
0.0449821
0.0214799
0.0570076
0.0733223
0.0839418
0.0903402
0.0922752
0.0914814
0.0896832
0.0878003
0.0861513
0.0847928
0.083691
0.0827954
0.0820689
0.0814793
0.081
0.0806094
0.080289
0.0800234
0.0797991
0.079604
0.0794265
0.0792549
0.0790765
0.0788765
0.0786373
0.0783372
0.0779485
0.0774359
0.0767532
0.0758386
0.0746079
0.0729423
0.0706685
0.0675199
0.0630545
0.0564362
0.0455815
0.0217848
0.0201447
0.0423118
0.0562005
0.0660298
0.0734621
0.0793205
0.0840942
0.0881082
0.0915932
0.0947177
0.0976068
0.100353
0.103021
0.105653
0.10827
0.110869
0.11343
0.115905
0.118228
0.120313
0.12206
0.123362
0.124123
0.124277
0.123806
0.12277
0.121316
0.119684
0.118174
0.11709
0.116666
0.117023
0.11781
0.118718
0.128585
0.149558
0.168654
0.177022
0.174392
0.163338
0.149372
0.13853
0.134512
0.137869
0.146193
0.0872578
0.0205131
0.0426054
0.0566395
0.0666066
0.0741581
0.0801165
0.0849703
0.0890459
0.0925754
0.0957288
0.0986317
0.101375
0.104022
0.106611
0.109158
0.111656
0.114077
0.116369
0.118462
0.120269
0.121691
0.122628
0.122998
0.122752
0.121898
0.120527
0.118818
0.117041
0.115515
0.114553
0.114402
0.115055
0.116069
0.121173
0.141332
0.161037
0.170123
0.169966
0.162813
0.151113
0.139139
0.131663
0.131996
0.141397
0.15523
0.132463
0.020874
0.0428065
0.0568896
0.0669073
0.0745071
0.0805118
0.0854078
0.0895197
0.0930781
0.0962517
0.0991641
0.101904
0.104532
0.107081
0.109564
0.11197
0.114264
0.116394
0.118285
0.119852
0.120999
0.121636
0.12169
0.121132
0.119992
0.118383
0.116511
0.114666
0.113181
0.112386
0.112499
0.113255
0.114782
0.131832
0.156292
0.168032
0.167805
0.161349
0.151479
0.140127
0.130177
0.124939
0.126855
0.136784
0.152315
0.156136
0.0212349
0.0429633
0.0570216
0.0670147
0.0745974
0.0805949
0.0854915
0.0896086
0.0931736
0.0963516
0.0992628
0.101992
0.104596
0.107104
0.109524
0.11184
0.114015
0.115995
0.117704
0.119058
0.119967
0.12035
0.120147
0.119345
0.117995
0.116232
0.114285
0.11246
0.111112
0.110579
0.110923
0.11172
0.121151
0.149503
0.169214
0.171521
0.164245
0.153694
0.142508
0.132018
0.123895
0.120119
0.122215
0.130586
0.144112
0.156146
0.0215988
0.0431074
0.0570914
0.0670011
0.0745112
0.0804524
0.0853083
0.0893969
0.0929416
0.096103
0.0989968
0.101703
0.104274
0.106734
0.109087
0.111313
0.113373
0.11521
0.116751
0.117913
0.118614
0.118781
0.118368
0.117378
0.115883
0.114041
0.112099
0.110386
0.109285
0.109089
0.109592
0.111367
0.135662
0.166874
0.177617
0.172334
0.160476
0.14771
0.13627
0.126923
0.120406
0.1177
0.119622
0.126351
0.137274
0.150054
0.0219651
0.0432568
0.0571365
0.0669204
0.0743144
0.0801584
0.0849366
0.0889645
0.0924612
0.0955829
0.0984402
0.101108
0.103633
0.106036
0.108316
0.11045
0.112397
0.114098
0.115483
0.116472
0.11699
0.116974
0.116392
0.115264
0.11368
0.111822
0.109958
0.108445
0.107678
0.107797
0.108415
0.120212
0.15681
0.180722
0.182194
0.171432
0.156916
0.143311
0.132321
0.124217
0.119091
0.117269
0.11912
0.124759
0.133895
0.145558
0.022332
0.0434208
0.0571797
0.06681
0.074057
0.0797725
0.0844428
0.0883819
0.0918055
0.0948651
0.0976665
0.10028
0.102746
0.105082
0.107282
0.109322
0.111156
0.112728
0.113969
0.114803
0.115162
0.114993
0.114278
0.113054
0.111432
0.109613
0.10789
0.106657
0.106269
0.10663
0.108096
0.137448
0.176063
0.189512
0.183753
0.169444
0.153677
0.140138
0.12998
0.123083
0.119133
0.118064
0.119988
0.124982
0.132898
0.143021
0.0226973
0.043603
0.057234
0.0666942
0.0737746
0.0793401
0.0838804
0.0877088
0.0910382
0.0940164
0.0967447
0.0992883
0.101684
0.103944
0.106059
0.108001
0.109727
0.111177
0.112285
0.112981
0.113204
0.11291
0.112095
0.110812
0.109193
0.107459
0.105931
0.105024
0.104989
0.105539
0.115047
0.159981
0.190367
0.194162
0.18319
0.166806
0.150746
0.137801
0.128623
0.12281
0.119819
0.119367
0.121417
0.125993
0.13295
0.14153
0.0230586
0.043804
0.0573054
0.0665879
0.0734915
0.0788944
0.0832903
0.0869926
0.0902123
0.0930942
0.0957354
0.0981973
0.100512
0.102689
0.104715
0.10656
0.108179
0.109515
0.110503
0.111078
0.111185
0.110791
0.109905
0.108597
0.107016
0.105406
0.104121
0.103558
0.103786
0.104607
0.134195
0.180701
0.199511
0.195693
0.181197
0.163806
0.148063
0.135976
0.127782
0.122893
0.120656
0.120681
0.122836
0.127077
0.133188
0.140306
0.0234141
0.0440227
0.0573959
0.0664997
0.0732235
0.0784585
0.0827026
0.0862697
0.0893698
0.092145
0.0946893
0.0970606
0.0992877
0.101376
0.10331
0.105059
0.106577
0.107807
0.108687
0.109156
0.109167
0.108696
0.107765
0.106459
0.104945
0.103487
0.102473
0.102245
0.102693
0.106956
0.156718
0.196151
0.204466
0.19504
0.178305
0.160639
0.145566
0.134432
0.127149
0.123024
0.121364
0.121734
0.123936
0.12785
0.133167
0.138945
0.0237619
0.0442575
0.0575053
0.0664333
0.0729797
0.0780473
0.0821377
0.0855661
0.0885416
0.0912044
0.0936461
0.0959214
0.0980564
0.100054
0.101897
0.103552
0.104974
0.106106
0.10689
0.107269
0.107201
0.106673
0.105718
0.104437
0.103012
0.101732
0.100992
0.101025
0.101569
0.124242
0.180166
0.206828
0.206494
0.192956
0.174893
0.157429
0.143205
0.13302
0.126549
0.123046
0.12182
0.122421
0.124605
0.128179
0.132753
0.137348
0.024101
0.0445061
0.0576321
0.0663903
0.0727652
0.0776698
0.0816093
0.0848998
0.0877498
0.0902985
0.0926351
0.0948123
0.0968538
0.0987602
0.100513
0.102078
0.10341
0.104453
0.105152
0.105454
0.105323
0.104755
0.103795
0.102556
0.101238
0.100158
0.0996865
0.0999192
0.101017
0.145665
0.197211
0.212775
0.206135
0.189856
0.171188
0.154244
0.140943
0.131656
0.125894
0.122896
0.121993
0.122736
0.124848
0.128078
0.131972
0.135555
0.0244302
0.0447669
0.0577744
0.0663703
0.072582
0.0773311
0.0811254
0.0842819
0.0870091
0.0894448
0.0916769
0.0937564
0.095705
0.097522
0.0991877
0.100668
0.101916
0.102879
0.103503
0.103739
0.103559
0.102966
0.102014
0.100831
0.0996319
0.0987571
0.0985334
0.0989669
0.104311
0.1691
0.209485
0.215544
0.204235
0.186166
0.16738
0.151138
0.138763
0.130302
0.125156
0.12257
0.121908
0.122729
0.124734
0.127625
0.130912
0.133648
0.0247493
0.0450385
0.0579304
0.0663724
0.0724308
0.0770334
0.0806903
0.0837191
0.0863281
0.0886543
0.0907846
0.0927685
0.0946267
0.0963571
0.0979395
0.099339
0.10051
0.101401
0.10196
0.102142
0.101925
0.101318
0.100387
0.0992706
0.0981997
0.0975224
0.0974951
0.0980384
0.125135
0.192043
0.218504
0.216482
0.201471
0.182208
0.1636
0.148142
0.136661
0.128949
0.124338
0.122093
0.121612
0.122468
0.124344
0.126914
0.129668
0.131704
0.0250582
0.0453203
0.0580987
0.0663957
0.072311
0.0767774
0.0803059
0.0832146
0.0857116
0.0879332
0.0899656
0.0918573
0.0936283
0.0952758
0.0967793
0.0981038
0.0992045
0.100031
0.100533
0.100671
0.100425
0.099815
0.0989147
0.0978744
0.0969433
0.0964558
0.096582
0.0973939
0.149848
0.207913
0.223418
0.215525
0.197964
0.178085
0.159898
0.145272
0.134636
0.127602
0.12346
0.121502
0.121161
0.122022
0.123761
0.126033
0.128322
0.129781
0.0253577
0.0456126
0.0582789
0.0664395
0.0722225
0.0765631
0.0799728
0.0827697
0.0851614
0.0872839
0.0892229
0.0910264
0.092714
0.0942826
0.0957116
0.0969664
0.0980028
0.0987717
0.0992255
0.099327
0.0990621
0.0984561
0.0975931
0.096634
0.095849
0.0955419
0.0958308
0.098551
0.171224
0.218139
0.225154
0.213157
0.193973
0.173925
0.156325
0.142541
0.132698
0.126276
0.122549
0.120837
0.120604
0.121452
0.123053
0.12505
0.126937
0.127917
0.02565
0.0459174
0.0584717
0.0665042
0.0721653
0.0763906
0.0796913
0.0823845
0.0846778
0.0867068
0.0885569
0.0902761
0.091884
0.0933774
0.0947361
0.095926
0.0969038
0.0976217
0.0980341
0.098107
0.0978303
0.0972358
0.0964155
0.0955403
0.0948937
0.0947474
0.0952639
0.108695
0.193893
0.226623
0.225854
0.210318
0.189885
0.16987
0.152922
0.139959
0.130855
0.12499
0.121633
0.120134
0.119988
0.12081
0.122274
0.124021
0.125554
0.126136
0.025939
0.0462394
0.0586797
0.0665914
0.0721405
0.0762608
0.0794614
0.0820589
0.0842601
0.0862006
0.087966
0.0896044
0.0911356
0.0925571
0.0938491
0.0949783
0.0959024
0.0965751
0.0969526
0.0970037
0.0967225
0.0961462
0.095374
0.0945868
0.0940682
0.0940388
0.0945363
0.144337
0.214148
0.233314
0.225706
0.207126
0.185757
0.165941
0.149692
0.13753
0.129115
0.12376
0.120737
0.119426
0.119348
0.120135
0.121465
0.122981
0.124204
0.124448
0.0262315
0.046587
0.0589085
0.0667053
0.0721511
0.0761754
0.0792843
0.0817928
0.0839074
0.0857637
0.0874475
0.0890077
0.0904645
0.0918164
0.0930442
0.094116
0.0949905
0.0956229
0.0959713
0.0960068
0.0957274
0.0951756
0.0944571
0.0937647
0.0933704
0.0934588
0.0943797
0.166227
0.225413
0.235841
0.223708
0.20322
0.181475
0.162103
0.146626
0.135251
0.127488
0.122603
0.119883
0.118737
0.118713
0.119458
0.120656
0.121957
0.122903
0.122857
0.0265392
0.0469752
0.0591681
0.0668533
0.0722026
0.0761382
0.0791619
0.0815869
0.083619
0.085394
0.0869984
0.0884817
0.0898652
0.0911484
0.0923136
0.0933299
0.0941579
0.0947541
0.0950783
0.095104
0.0948322
0.0943097
0.093649
0.093056
0.0927827
0.0930096
0.095439
0.183549
0.231316
0.235246
0.22027
0.198795
0.177127
0.158388
0.143732
0.133131
0.125984
0.121535
0.11909
0.118088
0.118104
0.118798
0.119866
0.120965
0.12166
0.121362
0.02688
0.047429
0.0594757
0.0670475
0.0723035
0.0761547
0.0790975
0.0814424
0.0833945
0.0850899
0.0866155
0.088022
0.0893318
0.090546
0.0916483
0.0926098
0.0933928
0.0939559
0.0942606
0.094282
0.0940235
0.0935354
0.0929354
0.0924383
0.0922827
0.0927252
0.102332
0.203138
0.237275
0.234598
0.216808
0.194431
0.172922
0.154863
0.141031
0.131179
0.124614
0.120569
0.118373
0.117496
0.117536
0.118172
0.119108
0.120015
0.120478
0.119956
0.0272813
0.0479845
0.0598554
0.0673047
0.0724653
0.0762325
0.0790954
0.0813613
0.0832341
0.0848498
0.086296
0.0876243
0.0888587
0.0900016
0.0910392
0.0919447
0.0926829
0.0932147
0.0935038
0.0935269
0.0932886
0.0928412
0.0923055
0.0918973
0.0918409
0.0924434
0.134402
0.224734
0.244471
0.234694
0.213673
0.190244
0.168881
0.151534
0.138534
0.12941
0.123394
0.119721
0.117747
0.116973
0.117023
0.11759
0.118392
0.119112
0.119358
0.118634
0.0277848
0.0486846
0.0603366
0.0676443
0.0727006
0.0763792
0.0791599
0.0813455
0.083138
0.0846728
0.0860377
0.0872853
0.0884408
0.0895089
0.090478
0.0913245
0.0920161
0.0925169
0.0927933
0.0928239
0.0926142
0.0922163
0.0917519
0.09143
0.0914495
0.0920472
0.173001
0.239647
0.248722
0.233385
0.209822
0.185779
0.16487
0.148363
0.136231
0.127828
0.122338
0.119007
0.117224
0.11653
0.11657
0.117057
0.117719
0.118255
0.118296
0.117388
0.0284597
0.0495573
0.0609423
0.0680835
0.0730208
0.0766012
0.0792938
0.0813956
0.0831056
0.0845574
0.0858387
0.0870022
0.0880749
0.0890632
0.0899587
0.0907412
0.0913825
0.0918507
0.0921159
0.0921593
0.091987
0.0916495
0.0912676
0.0910377
0.0911575
0.0923504
0.189167
0.244641
0.247236
0.228878
0.204429
0.180745
0.160755
0.145301
0.134108
0.126432
0.121446
0.118429
0.116813
0.116173
0.116183
0.116576
0.117092
0.117445
0.117289
0.11621
0.0293581
0.0506245
0.0616938
0.0686288
0.0734311
0.0769004
0.0794967
0.0815102
0.0831351
0.0845022
0.0856976
0.0867742
0.0877598
0.0886634
0.0894795
0.090192
0.0907779
0.0912102
0.0914641
0.0915243
0.0913978
0.091132
0.0908441
0.0907153
0.0909603
0.0936675
0.199724
0.243847
0.241444
0.221797
0.197788
0.175247
0.156596
0.14238
0.132184
0.125232
0.120725
0.117991
0.116513
0.115903
0.115863
0.116146
0.116509
0.116678
0.116332
0.115094
0.0304093
0.0519576
0.0626363
0.0693041
0.0739235
0.0772676
0.0797605
0.0816826
0.0832216
0.0845039
0.0856132
0.0866017
0.0874979
0.0883132
0.0890453
0.089683
0.0902083
0.0906009
0.0908419
0.0909213
0.0908479
0.0906647
0.0904792
0.0904629
0.0909049
0.0998307
0.212596
0.242619
0.234726
0.214039
0.190813
0.16972
0.152593
0.139692
0.1305
0.124245
0.120181
0.117696
0.116324
0.115717
0.115608
0.115766
0.115965
0.115949
0.115418
0.114031
0.0316802
0.0536357
0.063796
0.0701193
0.0745018
0.0776833
0.0800638
0.0818951
0.0833516
0.0845534
0.0855806
0.0864841
0.0872932
0.088021
0.0886691
0.0892306
0.0896937
0.0900448
0.0902722
0.0903724
0.0903576
0.0902656
0.0901858
0.0902788
0.0909684
0.129144
0.231058
0.243506
0.229103
0.206832
0.184212
0.164541
0.148936
0.137326
0.129096
0.123489
0.11982
0.117542
0.116243
0.115612
0.115411
0.115429
0.115456
0.115253
0.114542
0.113016
0.0345437
0.0562093
0.0652653
0.0711271
0.0751864
0.0781526
0.0803892
0.0821236
0.0835026
0.0846323
0.0855872
0.0864158
0.0871476
0.0877976
0.0883706
0.0888644
0.0892728
0.0895888
0.0898076
0.0899321
0.0899793
0.0899816
0.0900034
0.0901788
0.0907857
0.183186
0.243997
0.242545
0.223134
0.199811
0.178002
0.159813
0.145711
0.135336
0.127999
0.122976
0.119647
0.117531
0.116266
0.115583
0.115268
0.11513
0.114975
0.114581
0.113695
0.112042
0.0365604
0.0574819
0.0670645
0.0722589
0.0759913
0.0787251
0.0807824
0.0823878
0.0836788
0.0847399
0.0856331
0.0864017
0.0870743
0.0876667
0.0881859
0.0886334
0.0890066
0.0893033
0.0895229
0.0896727
0.0897743
0.089863
0.089994
0.0903972
0.0919844
0.197534
0.240583
0.234378
0.214301
0.191994
0.171885
0.155488
0.14294
0.13375
0.127228
0.122715
0.119663
0.117658
0.116388
0.115621
0.115169
0.11486
0.114514
0.113927
0.11287
0.1111
0.0361927
0.0578596
0.0672348
0.0723454
0.07612
0.0791523
0.0811795
0.0826894
0.083899
0.0848975
0.0857378
0.0864599
0.0870914
0.0876477
0.0881371
0.0885626
0.0889244
0.0892222
0.0894572
0.0896377
0.0897894
0.089958
0.0902232
0.0917217
0.101736
0.20396
0.227473
0.220436
0.202914
0.183469
0.165922
0.151623
0.140666
0.132595
0.1268
0.122712
0.119868
0.117918
0.116601
0.115718
0.115106
0.11461
0.114066
0.113286
0.112061
0.110183
0.0357076
0.0577446
0.0664771
0.073232
0.0775835
0.0801511
0.0814231
0.082803
0.0839712
0.0849526
0.0857871
0.0865101
0.0871485
0.0877169
0.0882279
0.0886904
0.0891144
0.0895096
0.089906
0.0903516
0.0909622
0.0915496
0.0913521
0.099732
0.165907
0.207929
0.215213
0.206836
0.19183
0.175478
0.160639
0.148438
0.138982
0.13191
0.126726
0.122967
0.120255
0.118302
0.116893
0.115862
0.115067
0.11437
0.11362
0.112647
0.111263
0.109287
0.0351293
0.0565432
0.0655962
0.0729146
0.0783064
0.081952
0.0844285
0.0862614
0.0876744
0.0888836
0.0901524
0.0916054
0.0932438
0.0952116
0.0975476
0.100486
0.104143
0.108208
0.113008
0.118659
0.125455
0.134012
0.145844
0.165634
0.195506
0.210057
0.207623
0.197106
0.183302
0.169216
0.156602
0.146178
0.137983
0.131724
0.127009
0.12347
0.120808
0.118791
0.117246
0.116035
0.115036
0.114126
0.113167
0.112004
0.110468
0.108406
0.0347605
0.0549846
0.0652065
0.0727585
0.0786535
0.0831693
0.0865939
0.0892463
0.0914569
0.0935719
0.0958499
0.0984452
0.101441
0.104936
0.109018
0.113825
0.119454
0.125917
0.133445
0.142252
0.152677
0.165202
0.180185
0.196474
0.209365
0.211144
0.203301
0.191104
0.177772
0.165115
0.154072
0.144962
0.137706
0.132034
0.127626
0.124192
0.121496
0.119356
0.117634
0.116216
0.114996
0.113864
0.112695
0.111346
0.10967
0.107533
0.0346883
0.0542445
0.0654019
0.0732176
0.0794002
0.0844273
0.0885535
0.0920431
0.0951927
0.0982968
0.101588
0.105246
0.109399
0.114153
0.119595
0.125817
0.132901
0.14093
0.150058
0.160436
0.172176
0.185131
0.198331
0.209241
0.214039
0.210304
0.200192
0.187468
0.174624
0.16295
0.152965
0.144738
0.138099
0.132784
0.128524
0.125084
0.122276
0.11996
0.118025
0.116376
0.114923
0.113565
0.112189
0.110665
0.108861
0.106665
0.0349364
0.0544729
0.0661372
0.0741415
0.0805307
0.0859382
0.0906298
0.0948271
0.0987649
0.102684
0.106808
0.111319
0.116357
0.122033
0.128429
0.135611
0.143631
0.152537
0.162369
0.173109
0.184562
0.19611
0.206354
0.212999
0.213686
0.207828
0.197387
0.185128
0.173052
0.16221
0.15297
0.145307
0.139023
0.13387
0.129617
0.126073
0.123089
0.120554
0.118379
0.116486
0.114794
0.113214
0.111639
0.109952
0.108035
0.105796
0.0354345
0.0553247
0.0672533
0.0753561
0.0818634
0.0875251
0.0926303
0.0973674
0.101926
0.106502
0.11129
0.116457
0.122143
0.128453
0.135457
0.143197
0.151683
0.160892
0.170747
0.181059
0.191412
0.201
0.208498
0.212229
0.210886
0.204536
0.194725
0.183483
0.172394
0.162353
0.153691
0.146389
0.140276
0.135141
0.13079
0.12707
0.123863
0.121081
0.118653
0.116511
0.114585
0.112791
0.111031
0.109198
0.107188
0.104922
0.0359673
0.0564801
0.0685938
0.0767487
0.0832987
0.089083
0.0944364
0.0995393
0.104545
0.10961
0.114892
0.120537
0.126669
0.133379
0.140717
0.148698
0.157285
0.166387
0.175832
0.185313
0.194316
0.202043
0.207421
0.209331
0.207101
0.201002
0.192203
0.18218
0.172158
0.1629
0.154731
0.147679
0.141629
0.136423
0.131911
0.127974
0.124521
0.121483
0.118802
0.11642
0.114272
0.112281
0.110356
0.108398
0.106315
0.104041
0.0363656
0.057653
0.0699898
0.0782154
0.0847772
0.0905953
0.0960578
0.101359
0.106635
0.112012
0.117617
0.123569
0.129967
0.13688
0.144339
0.152323
0.160759
0.169501
0.178314
0.186838
0.194549
0.200753
0.204643
0.205503
0.203012
0.197481
0.189773
0.180958
0.171976
0.163463
0.15574
0.148887
0.142854
0.137541
0.132846
0.128683
0.124985
0.121702
0.118784
0.116182
0.113835
0.111671
0.109605
0.107547
0.105414
0.103154
0.0366009
0.0586865
0.0712976
0.0796393
0.0862221
0.0920298
0.0975053
0.10287
0.108261
0.113788
0.119553