/*--------------------------------*- C++ -*----------------------------------*\
  =========                 |
  \\      /  F ield         | OpenFOAM: The Open Source CFD Toolbox
   \\    /   O peration     | Website:  https://openfoam.org
    \\  /    A nd           | Version:  7
     \\/     M anipulation  |
\*---------------------------------------------------------------------------*/
FoamFile
{
    version     2.0;
    format      ascii;
    class       volScalarField;
    location    "0.15";
    object      nut;
}
// * * * * * * * * * * * * * * * * * * * * * * * * * * * * * * * * * * * * * //

dimensions      [0 2 -1 0 0 0 0];

internalField   nonuniform List<scalar> 
9072
(
3.112e-05
3.11485e-05
3.74013e-05
4.1365e-05
4.42479e-05
4.65044e-05
4.83547e-05
4.99274e-05
5.13066e-05
5.25521e-05
5.37079e-05
5.48087e-05
5.58826e-05
5.69539e-05
5.80441e-05
5.91728e-05
6.03584e-05
6.16179e-05
6.29664e-05
6.44163e-05
6.59759e-05
6.76468e-05
6.94211e-05
7.12775e-05
7.31776e-05
7.50625e-05
7.68511e-05
7.8441e-05
7.97121e-05
8.05387e-05
8.08175e-05
8.04569e-05
7.92509e-05
7.71857e-05
7.46239e-05
7.15666e-05
6.81783e-05
6.47367e-05
6.15385e-05
5.88054e-05
5.67033e-05
5.52602e-05
5.44386e-05
5.40717e-05
5.36362e-05
5.17314e-05
6.39976e-05
0.000206222
0.000292571
0.000350839
0.000392811
0.00042446
0.000449171
0.000469047
0.000485486
0.000499476
0.000511751
0.000522878
0.000533314
0.000543434
0.000553556
0.000563941
0.000574802
0.00058629
0.000598483
0.000611367
0.000624812
0.000638546
0.000652131
0.000664938
0.000676122
0.000684612
0.000689102
0.000688093
0.000679991
0.00066334
0.000637225
0.000601475
0.000554514
0.00048532
0.000417838
0.000365564
0.000330291
0.000308385
0.000295076
0.000286089
0.000275375
0.000260287
0.000237985
0.000179784
0.000113855
0.000118148
7.22465e-05
0.000312514
0.000495514
0.000635157
0.000744726
0.000832627
0.000904503
0.000964338
0.00101507
0.00105893
0.00109769
0.00113279
0.00116539
0.0011965
0.00122694
0.00125737
0.0012883
0.00132004
0.00135269
0.00138608
0.00141977
0.00145296
0.00148452
0.00151294
0.0015363
0.0015523
0.0015582
0.0015509
0.00152713
0.00148392
0.00141922
0.00133248
0.00122403
0.00109251
0.00095179
0.000826794
0.000728531
0.000657223
0.000607559
0.000571443
0.000539614
0.000502615
0.000433423
0.000266621
0.000160905
0.000120411
7.78378e-05
0.000377756
0.000636376
0.00084923
0.00102577
0.00117347
0.00129821
0.00140464
0.00149651
0.00157689
0.00164832
0.00171298
0.00177269
0.00182905
0.00188334
0.00193661
0.00198961
0.00204276
0.00209612
0.00214932
0.00220157
0.0022516
0.00229769
0.00233765
0.00236883
0.00238809
0.00239176
0.00237574
0.00233568
0.00226747
0.002168
0.00203599
0.00187272
0.00168246
0.00147901
0.00129011
0.00113324
0.00101222
0.000920995
0.000848742
0.000788125
0.000729819
0.000616131
0.000399827
0.000287465
0.000140855
8.20367e-05
0.000425083
0.000742904
0.00101752
0.00125418
0.00145833
0.00163501
0.00178868
0.00192324
0.00204213
0.00214834
0.00224455
0.00233306
0.00241592
0.00249479
0.00257102
0.00264553
0.00271879
0.00279079
0.00286098
0.00292826
0.00299103
0.00304717
0.00309408
0.00312871
0.00314747
0.00314629
0.00312059
0.00306549
0.00297622
0.0028488
0.00268098
0.00247367
0.00223307
0.00197496
0.00172931
0.00151811
0.00134794
0.00121272
0.00110397
0.00101182
0.000916683
0.000804327
0.000634824
0.000419472
0.000154089
8.53934e-05
0.000463479
0.000829732
0.00115631
0.00144558
0.00170105
0.0019265
0.00212575
0.00230241
0.00245986
0.00260126
0.00272953
0.00284728
0.00295684
0.00306015
0.00315875
0.00325368
0.00334542
0.0034339
0.00351839
0.00359762
0.00366972
0.00373235
0.00378273
0.00381761
0.00383332
0.00382571
0.00379016
0.00372171
0.00361532
0.00346636
0.00327136
0.00302972
0.00274659
0.00243872
0.00213921
0.00187468
0.00165503
0.00147912
0.00133675
0.0012007
0.00106337
0.00101473
0.000836946
0.000508631
0.000160201
8.81723e-05
0.000496498
0.00090394
0.00127475
0.0016098
0.00191122
0.0021816
0.00242385
0.002641
0.00283613
0.0030123
0.00317243
0.00331928
0.00345531
0.00358263
0.00370288
0.00381717
0.00392598
0.00402917
0.0041259
0.00421475
0.00429374
0.00436041
0.00441189
0.00444497
0.00445609
0.00444128
0.0043962
0.00431614
0.00419608
0.00403094
0.00381598
0.00354823
0.00322915
0.00287291
0.00251692
0.00219707
0.00193296
0.00172065
0.00153115
0.00134419
0.00129365
0.00123944
0.000955076
0.0005541
0.000160992
9.05113e-05
0.000525552
0.000968816
0.00137773
0.0017527
0.00209508
0.00240645
0.00268877
0.00294436
0.0031758
0.00338583
0.00357723
0.00375272
0.00391478
0.00406558
0.00420679
0.00433955
0.00446432
0.00458091
0.00468842
0.00478533
0.00486961
0.00493875
0.00498993
0.00502008
0.00502586
0.00500372
0.00494978
0.0048598
0.00472902
0.00455207
0.00432303
0.00403649
0.00368821
0.00328258
0.00286429
0.00249134
0.00218283
0.00191644
0.00168717
0.0015728
0.00157093
0.00140609
0.00101137
0.000575047
0.00016067
9.2488e-05
0.000551135
0.0010258
0.00146785
0.0018778
0.00225666
0.00260526
0.00292468
0.00321645
0.00348253
0.00372523
0.00394704
0.00415049
0.004338
0.00451169
0.00467322
0.00482371
0.0049636
0.00509267
0.00520998
0.00531398
0.00540261
0.0054734
0.00552362
0.0055504
0.00555076
0.00552164
0.00545979
0.00536157
0.00522259
0.00503734
0.00479905
0.0045008
0.00413327
0.00368416
0.00320366
0.00276249
0.00237886
0.00208
0.00191003
0.00189995
0.00180779
0.00149995
0.0010383
0.000593253
0.000159486
9.4151e-05
0.000573331
0.00107547
0.00154651
0.00198726
0.00239869
0.00278105
0.00313465
0.00346025
0.00375915
0.00403312
0.00428426
0.00451484
0.00472709
0.00492302
0.00510424
0.00527181
0.00542617
0.00556706
0.00569355
0.00580408
0.0058966
0.00596873
0.00601787
0.0060414
0.00603675
0.00600143
0.00593286
0.00582805
0.00568305
0.00549235
0.00524878
0.00494555
0.00457432
0.00411029
0.0035665
0.00300201
0.00256264
0.00232792
0.0022608
0.00220665
0.00195917
0.00155113
0.00106406
0.000621036
0.000157909
9.55382e-05
0.000592086
0.00111812
0.0016146
0.00208262
0.00252318
0.00293612
0.00332111
0.00367819
0.00400798
0.00431166
0.00459089
0.00484759
0.00508373
0.00530117
0.00550141
0.00568545
0.00585371
0.00600592
0.00614115
0.0062579
0.00635417
0.00642766
0.00647596
0.00649673
0.00648783
0.00644736
0.00637343
0.00626369
0.00611463
0.00592086
0.00567511
0.00537129
0.00500549
0.00456845
0.00402653
0.00342258
0.00298545
0.00275612
0.0026517
0.00242973
0.00205838
0.00159726
0.00110781
0.000662952
0.000156418
9.66874e-05
0.000607378
0.00115405
0.0016729
0.00216514
0.0026318
0.00307244
0.00348618
0.0038724
0.00423107
0.0045628
0.00486872
0.00515036
0.00540941
0.00564751
0.00586602
0.00606587
0.00624746
0.00641051
0.00655415
0.00667692
0.0067769
0.00685194
0.00689982
0.00691851
0.00690633
0.00686194
0.0067841
0.00667107
0.00651979
0.00632508
0.00607974
0.00577639
0.00541351
0.0050229
0.00464717
0.00392128
0.00343378
0.00319238
0.00295465
0.0025971
0.00214805
0.00166367
0.00118004
0.00071912
0.000156549
9.76407e-05
0.000619349
0.00118372
0.00172226
0.00223606
0.00272616
0.00319186
0.00363183
0.00404489
0.00443041
0.00478839
0.00511948
0.00542475
0.00570558
0.00596334
0.00619926
0.00641418
0.00660846
0.00678184
0.00693351
0.00706207
0.00716574
0.00724253
0.00729043
0.00730777
0.00729328
0.00724622
0.00716594
0.00705125
0.00689951
0.0067059
0.00646385
0.00616255
0.00579939
0.00543716
0.00506004
0.0042842
0.00384226
0.00355179
0.00319801
0.00274707
0.00225238
0.00176224
0.00128523
0.000794829
0.000158202
9.84435e-05
0.000628357
0.00120781
0.0017637
0.00229672
0.00280785
0.00329618
0.00376001
0.00419768
0.00460798
0.00499037
0.00534497
0.00567243
0.00597375
0.00625005
0.00650239
0.00673151
0.00693772
0.00712082
0.00728003
0.00741408
0.00752132
0.00759993
0.00764821
0.00766479
0.00764891
0.00760033
0.00751899
0.00740419
0.0072537
0.00706321
0.00682766
0.00653264
0.00618219
0.00586292
0.00530603
0.00461412
0.00420561
0.0038485
0.0034074
0.00289692
0.00237959
0.0018949
0.00142424
0.000897356
0.000161639
9.914e-05
0.000634959
0.00122722
0.00179838
0.00234852
0.0028785
0.00338723
0.00387269
0.00433278
0.00476581
0.00517071
0.00554709
0.00589517
0.00621558
0.00650917
0.0067768
0.00701912
0.0072364
0.00742846
0.0075946
0.00773368
0.0078442
0.00792458
0.00797338
0.00798965
0.00797307
0.00792396
0.00784278
0.0077293
0.00758167
0.00739613
0.00716918
0.0068873
0.00657159
0.00632953
0.00556243
0.00493639
0.00452485
0.00410014
0.00359683
0.00305206
0.00252882
0.00205722
0.0015951
0.00103435
0.000167654
9.97676e-05
0.000639852
0.00124293
0.00182752
0.00239291
0.00293977
0.00346682
0.00397179
0.00445222
0.00490596
0.00533144
0.00572783
0.00609488
0.00643287
0.00674238
0.00702407
0.00727846
0.00750581
0.00770596
0.00787829
0.00802179
0.00813516
0.00821705
0.00826635
0.00828251
0.00826571
0.00821681
0.0081368
0.00802591
0.00788261
0.00770357
0.00748505
0.00722374
0.00696759
0.0066252
0.00581449
0.00525248
0.00480722
0.00432163
0.00377529
0.00321403
0.00269632
0.0022421
0.00179307
0.00121214
0.000177535
6.30734e-05
0.000118753
0.000162385
0.000192606
0.000212951
0.000226064
0.000234019
0.000238566
0.000241066
0.000242235
0.000242533
0.000242203
0.000241699
0.000241495
0.000241706
0.000242093
0.000242368
0.00024242
0.000242291
0.000242065
0.000241808
0.000241545
0.00024128
0.000240996
0.000240656
0.00024021
0.000239569
0.000238605
0.000237122
0.000234825
0.000231283
0.000225861
0.000217637
0.000205263
0.000186765
0.00015926
0.00011862
6.82607e-05
8.01089e-05
0.000267531
0.0003858
0.000465304
0.00051779
0.000551431
0.000572449
0.00058498
0.00059179
0.000594794
0.000595318
0.000594386
0.000592554
0.00059028
0.000588011
0.000586042
0.000584411
0.000583017
0.000581778
0.000580656
0.000579631
0.000578669
0.000577709
0.000576658
0.000575378
0.000573669
0.000571249
0.000567722
0.000562532
0.000554922
0.000543865
0.000527986
0.00050542
0.000473575
0.000428615
0.000364098
0.0002656
8.04266e-05
8.51934e-05
0.000378904
0.000579728
0.000719717
0.000817108
0.000883789
0.000928714
0.000957944
0.000975678
0.00098516
0.000988941
0.00098913
0.000986926
0.000983068
0.000978566
0.000974272
0.000970595
0.000967535
0.000964955
0.000962721
0.000960727
0.000958861
0.000956974
0.00095486
0.000952222
0.000948646
0.000943557
0.000936167
0.000925411
0.00090988
0.000887741
0.000856644
0.000813534
0.000754306
0.000672911
0.000558755
0.000386606
8.6154e-05
9.00252e-05
0.000461113
0.00073187
0.000928829
0.00107417
0.00118063
0.00125737
0.00131083
0.00134595
0.00136698
0.00137772
0.0013815
0.00138057
0.00137641
0.00137074
0.00136491
0.00135968
0.00135521
0.00135139
0.00134808
0.0013451
0.00134227
0.00133936
0.001336
0.00133171
0.00132582
0.00131739
0.00130517
0.0012875
0.00126221
0.00122659
0.00117721
0.00110979
0.00101872
0.000895927
0.000727367
0.000480703
9.12925e-05
9.43462e-05
0.000527397
0.000850883
0.00109555
0.00128686
0.00143606
0.0015501
0.001634
0.00169231
0.00172976
0.00175122
0.00176132
0.00176356
0.00176051
0.00175476
0.0017482
0.00174194
0.00173636
0.00173147
0.00172714
0.00172319
0.00171937
0.00171532
0.00171054
0.00170431
0.00169566
0.00168327
0.00166535
0.0016396
0.00160307
0.00155212
0.0014823
0.00138814
0.00126277
0.00109648
0.000872911
0.000556125
9.56528e-05
9.82108e-05
0.000582511
0.00094177
0.00122395
0.00145762
0.00165082
0.00180633
0.00192606
0.00201292
0.00207148
0.00210741
0.00212666
0.00213408
0.00213357
0.00212876
0.00212219
0.00211536
0.00210895
0.00210313
0.00209786
0.00209295
0.00208807
0.00208277
0.00207636
0.00206788
0.00205602
0.00203903
0.00201459
0.0019797
0.00193065
0.00186288
0.00177098
0.0016485
0.00148749
0.0012772
0.000999942
0.000618568
9.93099e-05
0.000101883
0.000624349
0.00100509
0.00131612
0.00158871
0.00182656
0.002027
0.00218736
0.00230782
0.00239203
0.00244618
0.00247746
0.00249211
0.00249562
0.00249276
0.00248683
0.00247986
0.00247287
0.00246628
0.00246012
0.00245423
0.00244823
0.00244153
0.00243326
0.00242219
0.00240666
0.00238445
0.00235268
0.00230768
0.00224497
0.00215915
0.00204395
0.00189208
0.00169488
0.00144096
0.00111214
0.000671533
0.00010238
0.000105763
0.000647599
0.00103957
0.00137342
0.00168229
0.00196519
0.00221341
0.00241869
0.00257744
0.00269166
0.00276768
0.00281391
0.00283786
0.00284688
0.00284698
0.00284236
0.00283568
0.00282838
0.00282115
0.00281416
0.00280727
0.00280007
0.00279181
0.00278143
0.00276742
0.00274775
0.00271971
0.00267986
0.00262386
0.00254649
0.0024416
0.00230217
0.00212029
0.00188682
0.00159016
0.00121222
0.000717219
0.000104969
0.000109576
0.000650337
0.00104486
0.00139814
0.00174142
0.00206936
0.00236743
0.00262119
0.00282236
0.00297065
0.00307205
0.003136
0.00317136
0.00318742
0.00319152
0.0031889
0.00318295
0.00317561
0.00316789
0.00316013
0.00315224
0.00314373
0.00313376
0.00312102
0.00310372
0.00307943
0.00304498
0.00299634
0.00292854
0.00283566
0.00271088
0.00254656
0.00233435
0.0020649
0.00172669
0.00130212
0.000757082
0.000107163
0.000112707
0.000632637
0.00102325
0.00139473
0.00177088
0.00214308
0.00249186
0.00279655
0.00304351
0.00322936
0.00335933
0.00344357
0.00349245
0.00351705
0.00352622
0.00352631
0.00352156
0.00351448
0.00350644
0.00349798
0.00348907
0.00347918
0.00346732
0.00345198
0.00343105
0.00340171
0.00336029
0.00330222
0.00322191
0.00311281
0.00296749
0.00277787
0.00253528
0.00223038
0.00185201
0.0013833
0.000792144
0.000109031
0.00011443
0.000596941
0.000980515
0.00137025
0.00177752
0.00219193
0.00259072
0.00294733
0.0032423
0.00346846
0.00362971
0.00373653
0.00380084
0.00383544
0.00385072
0.00385426
0.0038512
0.0038447
0.00383653
0.00382746
0.00381754
0.00380619
0.00379229
0.00377411
0.00374922
0.0037144
0.00366552
0.00359745
0.00350403
0.00337812
0.00321183
0.00299667
0.00272388
0.0023843
0.00196726
0.00145686
0.000823168
0.00011063
0.000114398
0.000548806
0.000926525
0.0013345
0.00177014
0.0022231
0.00266926
0.00307702
0.00342081
0.00368902
0.00388359
0.00401486
0.00409625
0.00414218
0.00416457
0.00417228
0.00417142
0.00416584
0.00415775
0.00414817
0.00413723
0.00412436
0.00410828
0.00408704
0.00405789
0.00401723
0.00396044
0.00388188
0.00377485
0.00363171
0.00344414
0.00320344
0.00290083
0.00252747
0.00207337
0.00152367
0.000850743
0.00011201
0.000115921
0.00049771
0.000875609
0.00129989
0.00175915
0.00224494
0.00273377
0.00318999
0.00358183
0.0038926
0.00412174
0.00427873
0.00437851
0.00443689
0.00446729
0.00447985
0.00448168
0.00447735
0.00446956
0.00445958
0.00444767
0.00443322
0.00441484
0.00439034
0.00435667
0.00430982
0.00424474
0.00415529
0.00403427
0.0038736
0.00366464
0.00339854
0.00306667
0.00266059
0.00217109
0.00158445
0.000875345
0.000113209
0.000126677
0.00046489
0.000846746
0.00128111
0.00175578
0.00226631
0.00279111
0.00329126
0.00372875
0.00408129
0.00434514
0.00452856
0.00464761
0.00471931
0.00475846
0.00477647
0.00478145
0.0047787
0.00477141
0.00476115
0.0047483
0.00473224
0.00471144
0.00468351
0.00464509
0.00459178
0.0045181
0.00441743
0.00428215
0.00410379
0.00387347
0.0035823
0.00322186
0.00278425
0.00226107
0.00163978
0.000897361
0.000114263
0.000154141
0.000478303
0.000861666
0.00129332
0.00177071
0.0022956
0.0028481
0.00338613
0.0038654
0.00425763
0.0045552
0.00476509
0.00490378
0.00498932
0.00503777
0.00506171
0.00507022
0.00506935
0.00506276
0.00505235
0.00503859
0.00502089
0.00499759
0.00496608
0.00492271
0.0048627
0.00478017
0.00466807
0.00451836
0.00432228
0.00407077
0.00375499
0.00336683
0.00289896
0.00234386
0.00169018
0.000917113
0.000115201
0.000191417
0.000561062
0.000938184
0.00134726
0.00181165
0.0023395
0.00291085
0.00347983
0.00399582
0.00442449
0.00475381
0.00498936
0.0051475
0.00524703
0.00530506
0.00533526
0.00534761
0.00534884
0.00534313
0.00533266
0.00531804
0.00529867
0.0052728
0.0052376
0.00518911
0.00512223
0.00503067
0.00490699
0.0047428
0.00452909
0.00425669
0.00391689
0.00350195
0.00300519
0.00241997
0.0017361
0.000934867
0.000116049
0.00010038
0.000644488
0.00125965
0.00186085
0.00244594
0.00301507
0.00356664
0.00409796
0.00460605
0.00508812
0.00554193
0.00596589
0.00635913
0.00672135
0.00705267
0.00735343
0.00762399
0.00786453
0.00807493
0.00825471
0.0084031
0.00851912
0.00860187
0.00865083
0.00866615
0.00864892
0.00860094
0.00852419
0.00841972
0.00828676
0.00812314
0.0079236
0.00770583
0.00753947
0.00692571
0.00623007
0.00573076
0.00522451
0.00466551
0.00407752
0.00351047
0.0030101
0.0025766
0.00213822
0.00155302
0.000401382
0.000101337
0.000647976
0.00127703
0.00189649
0.00250286
0.0030959
0.0036737
0.0042332
0.00477087
0.00528327
0.00576737
0.0062208
0.00664192
0.00702975
0.00738387
0.00770423
0.00799094
0.0082441
0.00846364
0.0086493
0.0088006
0.00891705
0.00899841
0.00904498
0.00905799
0.00903976
0.00899348
0.00892242
0.00882876
0.00871248
0.00857087
0.00840198
0.00822012
0.00792748
0.00726457
0.00677802
0.00623663
0.00561725
0.00498056
0.00436802
0.00381255
0.00332979
0.00289329
0.00243153
0.00183378
0.000873105
0.000102266
0.000650698
0.00129174
0.00192641
0.00255001
0.00316214
0.00376068
0.0043423
0.00490307
0.00543901
0.0059465
0.00642251
0.00686479
0.00727179
0.00764265
0.00797698
0.0082747
0.00853587
0.00876049
0.00894849
0.00909976
0.00921431
0.00929253
0.00933563
0.00934587
0.00932683
0.00928299
0.00921888
0.00913769
0.00904065
0.00892264
0.0087903
0.00866018
0.00809879
0.00770085
0.00728782
0.00667503
0.00597533
0.0052935
0.00467771
0.00414059
0.00366499
0.00320154
0.00269031
0.00209124
0.00135201
0.000103184
0.000653484
0.00130542
0.00195309
0.00259086
0.00321827
0.00383314
0.00443193
0.00501038
0.00556411
0.00608902
0.00658157
0.00703902
0.00745941
0.00784151
0.00818472
0.00848882
0.00875384
0.00897992
0.0091672
0.00931592
0.00942659
0.00950028
0.00953902
0.00954613
0.00952634
0.00948535
0.00942882
0.00936098
0.00928328
0.00919204
0.00909617
0.00872498
0.00831475
0.00814893
0.00772214
0.00706478
0.00633362
0.00564375
0.00504366
0.00452845
0.00405478
0.00355969
0.00299973
0.00238781
0.00178038
0.000104101
0.000656717
0.00131896
0.001978
0.00262756
0.00326725
0.00389488
0.00450677
0.00509843
0.00566514
0.00620242
0.00670636
0.00717386
0.00760266
0.00799129
0.008339
0.00864553
0.00891094
0.00913549
0.00931958
0.0094638
0.00956916
0.00963738
0.0096713
0.0096752
0.00965487
0.00961709
0.00956853
0.00951485
0.00945536
0.00939064
0.00927372
0.00868878
0.00864495
0.00852779
0.00807436
0.00741434
0.00669989
0.00603808
0.0054715
0.00498293
0.00451494
0.00400202
0.00341673
0.00280174
0.00226694
0.000105015
0.00066058
0.00133282
0.00200202
0.00266151
0.00331106
0.00394856
0.00457024
0.00517142
0.00574712
0.00629259
0.00680364
0.00727692
0.00770998
0.00810123
0.00844985
0.00875558
0.00901859
0.00923929
0.00941833
0.00955667
0.0096558
0.00971805
0.00974703
0.00974792
0.00972746
0.00969334
0.00965315
0.009613
0.00957233
0.0095249
0.00904429
0.00880807
0.00898134
0.00882603
0.00836027
0.00773141
0.0070694
0.00646287
0.00594372
0.00548778
0.00503556
0.00452824
0.0039517
0.0033619
0.002879
0.000105923
0.000665129
0.00134724
0.00202568
0.00269363
0.00335113
0.00399617
0.00462495
0.00523265
0.00581409
0.00636432
0.00687897
0.00735455
0.00778851
0.00817922
0.00852587
0.00882829
0.00908674
0.00930185
0.00947453
0.00960609
0.00969848
0.00975463
0.00977885
0.00977713
0.00975704
0.00972708
0.00969601
0.00966886
0.00964089
0.00953231
0.00885072
0.00908167
0.00925645
0.00905335
0.00859662
0.00802191
0.0074335
0.00689771
0.00643421
0.00601676
0.00559211
0.00511331
0.0045762
0.00403809
0.0036055
0.000106818
0.000670358
0.00136229
0.00204929
0.00272459
0.00338854
0.00403928
0.004673
0.00528479
0.00586935
0.00642159
0.00693704
0.00741214
0.00784432
0.00823202
0.00857449
0.00887166
0.00912399
0.00933228
0.00949773
0.00962201
0.00970748
0.00975765
0.00977747
0.00977364
0.00975445
0.00972908
0.00970692
0.00969173
0.00966522
0.00914336
0.00890663
0.00936209
0.00946383
0.00922741
0.00879757
0.00829008
0.0077841
0.0073243
0.00691956
0.00654515
0.00615822
0.00572487
0.00524782
0.00477845
0.00440066
0.000107697
0.000676222
0.00137798
0.00207307
0.00275489
0.00342414
0.00407915
0.00471612
0.0053301
0.00591571
0.00646778
0.00698181
0.00745426
0.00788262
0.00826541
0.00860203
0.00889257
0.00913766
0.00933834
0.00949608
0.00961286
0.0096915
0.00973597
0.00975184
0.00974645
0.00972867
0.0097084
0.0096949
0.00968628
0.00962322
0.00879127
0.00916556
0.00959188
0.00961469
0.00936348
0.00897325
0.00853842
0.00811525
0.00772994
0.00738354
0.00705504
0.00671284
0.00633482
0.00592777
0.00553372
0.00521304
0.000108554
0.000682668
0.0013943
0.00209714
0.00278488
0.0034586
0.0041168
0.00475574
0.00537044
0.0059555
0.00650572
0.00701665
0.0074848
0.00790779
0.00828429
0.00861387
0.00889681
0.00913396
0.00932658
0.0094764
0.00958573
0.00965777
0.00969696
0.00970939
0.00970291
0.00968688
0.00967191
0.00966599
0.00965176
0.00930525
0.00875
0.00942532
0.00975807
0.00972183
0.00947284
0.00913018
0.00876814
0.0084232
0.00810733
0.00781677
0.00753523
0.00724136
0.00692234
0.00658669
0.00626636
0.00600129
0.000109388
0.000689637
0.00141119
0.00212157
0.00281484
0.00349245
0.00415306
0.00479302
0.00540736
0.00599066
0.0065378
0.00704436
0.007507
0.00792351
0.00829274
0.00861448
0.00888923
0.00911804
0.00930242
0.00944434
0.00954643
0.00961223
0.00964661
0.0096561
0.00964897
0.00963496
0.00962492
0.00962427
0.00959633
0.00865432
0.00899226
0.00965112
0.00987616
0.00979819
0.0095635
0.00927225
0.00897971
0.008706
0.00845295
0.00821454
0.0079793
0.00773423
0.00747323
0.00720479
0.0069516
0.00673757
0.000110194
0.000697082
0.00142862
0.00214642
0.00284498
0.00352608
0.00418858
0.0048289
0.00544209
0.00602279
0.00656593
0.00706723
0.00752351
0.00793278
0.00829411
0.00860753
0.00887376
0.00909409
0.00927024
0.00940447
0.00949964
0.00955964
0.00958969
0.0095967
0.00958929
0.00957755
0.00957173
0.00956823
0.00946002
0.00847122
0.00925021
0.00980705
0.00994998
0.00985041
0.00963992
0.00940132
0.00917318
0.00896288
0.00876562
0.00857495
0.00838378
0.00818546
0.00797829
0.00776969
0.00757448
0.00740467
0.000110972
0.000704966
0.00144654
0.00217172
0.00287545
0.00355983
0.00422389
0.00486412
0.00547564
0.00605313
0.00659165
0.00708708
0.00753644
0.00793799
0.00829105
0.0085959
0.00885351
0.00906539
0.00923351
0.00936034
0.009449
0.00950366
0.00952985
0.00953477
0.00952727
0.00951776
0.00951496
0.00949535
0.00899681
0.0085473
0.00946101
0.00990734
0.00999165
0.00988555
0.00970555
0.00951853
0.00934868
0.00919386
0.00904543
0.0088976
0.00874699
0.00859147
0.00843196
0.00827422
0.00812673
0.00799303
0.000111722
0.000713269
0.00146496
0.00219755
0.0029064
0.00359395
0.00425938
0.00489926
0.00550875
0.00608266
0.00661615
0.00710531
0.00754741
0.00794096
0.00828558
0.0085818
0.00883085
0.00903447
0.00919485
0.00931465
0.00939725
0.00944705
0.00946983
0.00947301
0.00946554
0.00945795
0.00945692
0.00941901
0.00820296
0.00883932
0.00964673
0.009977
0.010014
0.00990981
0.00976297
0.00962463
0.0095065
0.00939953
0.00929318
0.00918295
0.00906842
0.00895049
0.00883137
0.00871501
0.00860494
0.00849892
0.000112444
0.000721994
0.00148392
0.00222399
0.00293801
0.00362872
0.00429543
0.00493479
0.00554205
0.00611211
0.00664031
0.00712297
0.00755763
0.00794307
0.00827921
0.00856687
0.00880753
0.00900316
0.00915614
0.00926933
0.00934633
0.00939173
0.00941153
0.00941328
0.00940599
0.00939969
0.00939482
0.00930728
0.00811615
0.00910442
0.00977246
0.0100136
0.01002
0.00992568
0.0098134
0.00972007
0.00964715
0.00958085
0.00951013
0.00943208
0.0093485
0.00926221
0.00917588
0.00909165
0.00900937
0.00892304
0.000113143
0.000731172
0.00150351
0.00225121
0.0029705
0.0036644
0.00433237
0.00497113
0.00557602
0.00614206
0.00666482
0.00714083
0.00756794
0.00794526
0.00827299
0.00855225
0.00878476
0.00897271
0.00911867
0.0092257
0.00929754
0.00933895
0.00935612
0.00935668
0.0093497
0.00934349
0.00932412
0.00900822
0.00818237
0.00927447
0.00983779
0.010021
0.0100129
0.00993519
0.00985779
0.00980542
0.00977141
0.00973909
0.00969789
0.00964652
0.00958849
0.0095277
0.00946673
0.00940614
0.00934315
0.00926952
0.000113825
0.000740876
0.0015239
0.00227946
0.00300418
0.00370136
0.00437058
0.00500867
0.00561106
0.00617297
0.00669014
0.00715941
0.00757894
0.00794816
0.00826759
0.00853864
0.00876327
0.0089439
0.00908326
0.00918456
0.00925166
0.00928948
0.00930427
0.00930376
0.00929705
0.0092901
0.00924202
0.00812137
0.00841286
0.0094241
0.00988027
0.0100147
0.00999912
0.00994107
0.0098973
0.00988144
0.00988035
0.00987582
0.00985837
0.00982834
0.00979045
0.00974918
0.00970674
0.00966238
0.00961157
0.00954492
0.000114504
0.000751244
0.00154539
0.00230915
0.0030395
0.00374004
0.0044105
0.00504782
0.00564759
0.00620519
0.00671664
0.00717908
0.00759099
0.00795214
0.0082634
0.00852644
0.00874348
0.00891713
0.00905029
0.00914628
0.00920909
0.00924368
0.00925636
0.00925483
0.00924828
0.0092415
0.00918783
0.00768301
0.0087672
0.0095722
0.00991356
0.0100021
0.00998248
0.00994517
0.00993298
0.00994913
0.00997533
0.00999286
0.00999381
0.00998003
0.00995716
0.00992988
0.00989997
0.00986567
0.00982136
0.0097573
0.000115198
0.000762536
0.00156848
0.0023409
0.00307711
0.00378106
0.00445268
0.00508907
0.005686
0.00623907
0.0067446
0.00720005
0.00760427
0.00795737
0.00826055
0.00851577
0.0087255
0.00889251
0.00901985
0.00911094
0.00916985
0.00920159
0.0092124
0.00920984
0.00920251
0.00918982
0.00907339
0.00778368
0.00897801
0.00965428
0.00991938
0.00997886
0.0099628
0.0099482
0.0099657
0.0100096
0.0100579
0.0100923
0.0101067
0.0101045
0.010092
0.0100738
0.0100514
0.0100222
0.00998004
0.00991542
0.000115942
0.000775238
0.00159397
0.0023756
0.00311789
0.00382522
0.00449782
0.00513298
0.00572671
0.00627492
0.00677422
0.00722246
0.00761884
0.00796385
0.00825901
0.00850657
0.00870921
0.0088699
0.00899178
0.00907835
0.00913372
0.00916292
0.00917213
0.00916864
0.0091592
0.00913237
0.00881993
0.00786419
0.00907757
0.00967435
0.009897
0.00994499
0.0099405
0.0099508
0.00999628
0.010064
0.0101297
0.0101762
0.0101997
0.0102049
0.0101986
0.0101854
0.0101664
0.0101385
0.0100954
0.0100281
0.000116783
0.000790227
0.00162301
0.00241447
0.00316298
0.00387353
0.00454672
0.00518017
0.00577018
0.00631301
0.00680565
0.00724633
0.00763465
0.00797145
0.0082586
0.0084986
0.00869437
0.00884901
0.00896577
0.00904818
0.00910035
0.00912728
0.0091351
0.00913086
0.00911832
0.0090613
0.00801595
0.00802858
0.00916161
0.00967678
0.00986337
0.00990633
0.00991764
0.00995397
0.0100257
0.0101136
0.0101925
0.010247
0.0102757
0.0102846
0.010281
0.0102694
0.0102505
0.0102211
0.0101749
0.0101037
0.000117794
0.000808845
0.0016571
0.00245896
0.00321375
0.00392715
0.00460031
0.0052313
0.00581684
0.00635359
0.00683897
0.00727163
0.00765155
0.00797996
0.00825902
0.00849153
0.00868058
0.00882944
0.00894141
0.00902002
0.00906931
0.00909421
0.00910081
0.0090962
0.00908222
0.00899884
0.00706205
0.00835431
0.00928248
0.00968757
0.00982966
0.00986751
0.00989655
0.00995886
0.0100546
0.0101593
0.0102477
0.0103068
0.0103373
0.0103469
0.0103431
0.0103304
0.0103092
0.0102763
0.0102256
0.0101498
0.000119085
0.00083246
0.00169758
0.00251058
0.00327161
0.00398726
0.00465948
0.00528698
0.00586703
0.0063968
0.00687417
0.00729821
0.00766933
0.00798908
0.00825994
0.00848495
0.00866743
0.00881072
0.00891822
0.00899339
0.00904016
0.00906327
0.00906864
0.00906347
0.00904847
0.00895862
0.00735203
0.00865907
0.00938554
0.00968914
0.00979226
0.00982929
0.00987761
0.00996592
0.0100836
0.0102019
0.0102963
0.010357
0.010387
0.0103949
0.0103886
0.0103727
0.0103474
0.0103096
0.0102536
0.010173
0.000120845
0.000860328
0.00174459
0.00257038
0.00333783
0.00405493
0.00472497
0.00534763
0.00592093
0.0064426
0.00691106
0.00732582
0.00768765
0.00799845
0.00826097
0.00847849
0.00865448
0.00879243
0.00889575
0.00896786
0.00901248
0.00903404
0.00903809
0.00903129
0.00900934
0.00883451
0.00750906
0.00878807
0.00941094
0.00965834
0.00974342
0.00978987
0.00986283
0.00997764
0.0101148
0.0102432
0.0103404
0.0103999
0.0104271
0.0104314
0.010421
0.0104003
0.0103696
0.010326
0.0102643
0.0101789
0.000123026
0.000890352
0.0017987
0.00263868
0.00341324
0.0041308
0.0047971
0.00541329
0.00597834
0.00649069
0.00694927
0.00735404
0.00770612
0.00800771
0.0082618
0.00847184
0.00864147
0.00877429
0.00887374
0.00894316
0.00898602
0.0090063
0.00900897
0.00899926
0.00896428
0.0085916
0.00757283
0.0088077
0.00937134
0.00959477
0.00968285
0.00975176
0.0098547
0.0099959
0.0101496
0.0102845
0.0103815
0.0104374
0.0104597
0.0104589
0.0104431
0.0104166
0.0103796
0.0103296
0.010262
0.010172
0.00012541
0.00092774
0.0018671
0.00272116
0.0034984
0.00421473
0.00487548
0.00548338
0.00603859
0.00654034
0.00698811
0.00738227
0.00772426
0.00801651
0.00826219
0.0084649
0.00862841
0.00875639
0.00885231
0.00891942
0.00896091
0.0089802
0.00898146
0.00896716
0.00890351
0.00786754
0.00766697
0.00880187
0.00930286
0.00951255
0.00961757
0.00971841
0.00985499
0.0100216
0.0101887
0.0103267
0.0104206
0.0104709
0.0104869
0.0104797
0.0104574
0.0104243
0.0103806
0.0103239
0.0102504
0.0101561
0.000128495
0.00098054
0.00195803
0.00282374
0.00359859
0.00430677
0.00495866
0.00555634
0.00610018
0.0065902
0.00702641
0.00740957
0.00774139
0.00802445
0.00826203
0.00845783
0.00861568
0.0087393
0.00883218
0.00889747
0.00893801
0.00895655
0.00895641
0.00893676
0.00882997
0.00673445
0.00790493
0.00881551
0.00922811
0.00942517
0.00955439
0.00969313
0.00986515
0.0100554
0.0102325
0.0103704
0.0104589
0.0105019
0.0105104
0.0104957
0.0104661
0.0104257
0.0103749
0.0103116
0.0102323
0.010134
0.000139118
0.00107111
0.00208632
0.00295516
0.00371755
0.00441
0.00504558
0.00562969
0.00616077
0.00663819
0.00706244
0.00743459
0.00775655
0.00803101
0.00826126
0.00845103
0.00860413
0.0087243
0.00881498
0.00887915
0.00891929
0.0089371
0.00893472
0.00891034
0.00880958
0.00698637
0.00818201
0.00882903
0.00915261
0.00934214
0.00950172
0.00968171
0.00988847
0.010099
0.0102821
0.0104167
0.0104974
0.0105316
0.0105314
0.0105084
0.0104709
0.0104227
0.0103645
0.0102945
0.0102097
0.0101078
0.000135861
0.00109415
0.00228743
0.00310843
0.00385321
0.00452747
0.00514162
0.00570489
0.00621939
0.00668284
0.00709471
0.00745607
0.00776892
0.00803586
0.00826006
0.0084452
0.00859494
0.00871292
0.00880245
0.0088663
0.00890651
0.00892321
0.00891541
0.00886652
0.00864019
0.00725094
0.00829396
0.00880852
0.00908512
0.00928214
0.00947641
0.00969581
0.00993182
0.010156
0.0103395
0.0104668