/*--------------------------------*- C++ -*----------------------------------*\
  =========                 |
  \\      /  F ield         | OpenFOAM: The Open Source CFD Toolbox
   \\    /   O peration     | Website:  https://openfoam.org
    \\  /    A nd           | Version:  7
     \\/     M anipulation  |
\*---------------------------------------------------------------------------*/
FoamFile
{
    version     2.0;
    format      ascii;
    class       volScalarField;
    location    "0.15";
    object      p;
}
// * * * * * * * * * * * * * * * * * * * * * * * * * * * * * * * * * * * * * //

dimensions      [1 -1 -2 0 0 0 0];

internalField   nonuniform List<scalar> 
9072
(
1985.48
1989.41
1992.57
1993.61
1991.55
1986.33
1978.21
1967.34
1953.83
1937.75
1919.15
1898.02
1874.33
1848.05
1819.08
1787.31
1752.59
1714.72
1673.47
1628.52
1579.47
1525.84
1467.06
1402.44
1331.23
1252.61
1165.89
1070.63
967.077
856.558
741.98
628.146
523.334
434.68
361.23
299.556
247.375
202.495
162.782
126.852
94.0527
63.6249
35.0486
15.028
9.71503
11.1307
1955.38
1958.33
1960.1
1960.14
1957.52
1951.99
1943.66
1932.65
1919.02
1902.83
1884.11
1862.85
1839.01
1812.55
1783.36
1751.33
1716.3
1678.07
1636.38
1590.9
1541.23
1486.87
1427.25
1361.69
1289.45
1209.79
1122.11
1026.12
922.27
812.086
698.537
586.414
481.796
391.343
321.736
266.795
221.285
180.107
140.723
102.554
64.9092
29.9796
9.44419
4.01226
6.6602
9.42831
1925.18
1927.87
1928.32
1927.08
1923.54
1917.36
1908.56
1897.17
1883.23
1866.75
1847.75
1826.2
1802.06
1775.25
1745.68
1713.21
1677.66
1638.83
1596.44
1550.14
1499.53
1444.11
1383.31
1316.47
1242.93
1162.05
1073.37
976.843
873.136
763.999
652.524
543.479
442.969
358
289.04
236.171
192.726
152.825
113.493
74.3759
37.1684
12.5721
4.71721
3.23984
5.15571
7.36385
1894.74
1897.68
1897.35
1895.06
1890.6
1883.68
1874.27
1862.38
1848.01
1831.15
1811.77
1789.84
1765.31
1738.08
1708.04
1675.04
1638.91
1599.41
1556.25
1509.1
1457.52
1401.03
1339.08
1271.06
1196.37
1114.49
1025.1
928.344
825.069
717.171
607.841
501.751
404.469
321.637
254.913
203.547
161.522
122.664
83.8053
45.6535
15.3812
5.54516
3.7898
3.49254
4.43101
5.82531
1864.06
1867.37
1866.67
1863.67
1858.48
1850.9
1840.92
1828.53
1813.7
1796.42
1776.64
1754.32
1729.37
1701.7
1671.19
1637.68
1600.97
1560.83
1516.96
1469.01
1416.58
1359.17
1296.26
1227.3
1151.75
1069.17
979.397
882.675
779.979
673.275
565.75
461.916
366.932
285.699
220.103
169.243
127.873
89.5489
51.8891
20.3042
5.46843
3.23162
3.2209
3.37588
3.90112
4.8206
1833.19
1836.79
1835.94
1832.51
1826.78
1818.66
1808.18
1795.33
1780.08
1762.4
1742.23
1719.51
1694.16
1666.07
1635.1
1601.09
1563.84
1523.1
1478.58
1429.93
1376.74
1318.55
1254.86
1185.16
1108.98
1025.96
936.031
839.538
737.519
631.949
525.933
423.785
330.298
249.763
183.919
132.565
91.36
54.1714
22.7578
6.27542
2.90794
2.63749
2.88805
3.11376
3.49906
4.17789
1802.14
1805.96
1805.09
1801.41
1795.31
1786.78
1775.88
1762.63
1747
1728.95
1708.41
1685.31
1659.57
1631.07
1599.66
1565.18
1527.42
1486.13
1441.01
1391.72
1337.86
1279
1214.66
1144.37
1067.73
984.469
894.576
798.471
697.227
592.779
488.086
387.216
294.473
213.366
145.515
92.5429
52.5494
22.2193
6.23399
2.54607
2.26951
2.41473
2.67418
2.90302
3.19925
3.72165
1770.97
1774.94
1774.13
1770.34
1764
1755.16
1743.94
1730.35
1714.39
1695.99
1675.11
1651.67
1625.56
1596.66
1564.84
1529.91
1491.67
1449.86
1404.18
1354.31
1299.86
1240.41
1175.52
1104.78
1027.83
944.481
854.783
759.211
658.846
555.551
452.088
352.231
259.54
176.288
104.4
50.1937
18.6361
5.05616
2.20472
2.04594
2.08857
2.27302
2.51719
2.74123
2.98172
3.34552
1739.71
1743.79
1743.11
1739.33
1732.84
1723.79
1712.31
1698.46
1682.2
1663.51
1642.32
1618.55
1592.1
1562.84
1530.62
1495.28
1456.58
1414.27
1368.08
1317.68
1262.69
1202.73
1137.39
1066.3
989.166
905.861
816.501
721.595
622.226
520.153
417.924
319.002
225.818
138.812
63.0367
15.6352
2.68141
1.63289
1.82289
1.88295
1.97884
2.16466
2.38424
2.58929
2.78517
3.0168
1708.42
1712.61
1712.1
1708.38
1701.82
1692.64
1680.99
1666.91
1650.42
1631.48
1610.01
1585.95
1559.18
1529.58
1497
1461.26
1422.13
1379.37
1332.7
1281.8
1226.34
1165.93
1100.21
1028.86
951.648
868.508
779.61
685.501
587.254
486.517
385.638
287.806
193.855
102.855
30.3645
1.74273
0.931323
1.51649
1.67669
1.75312
1.8945
2.07022
2.26113
2.43497
2.58699
2.72099
1677.14
1681.45
1681.13
1677.53
1670.98
1661.72
1649.95
1635.72
1619.04
1599.88
1578.17
1553.85
1526.79
1496.88
1463.96
1427.85
1388.32
1345.13
1298.02
1246.68
1190.77
1129.97
1063.94
992.408
915.214
832.342
744.019
650.83
553.84
454.588
355.289
258.886
164.19
71.8142
12.6713
1.16653
1.34443
1.51454
1.57679
1.67389
1.82141
1.97942
2.13898
2.27714
2.383
2.44929
1645.91
1650.38
1650.26
1646.8
1640.3
1631.03
1619.19
1604.85
1588.03
1568.69
1546.79
1522.24
1494.93
1464.73
1431.5
1395.05
1355.15
1311.57
1264.04
1212.29
1155.99
1094.85
1028.56
956.923
879.822
797.303
709.653
617.499
521.898
424.303
326.902
232.311
136.868
47.5691
6.35406
1.76822
1.43246
1.46898
1.52542
1.62499
1.75388
1.88619
2.01374
2.11565
2.17665
2.1859
1614.76
1619.43
1619.51
1616.22
1609.8
1600.56
1588.69
1574.3
1557.38
1537.92
1515.85
1491.11
1463.57
1433.13
1399.62
1362.85
1322.61
1278.67
1230.77
1178.64
1122
1060.55
994.07
922.384
845.441
763.348
676.456
585.436
491.347
395.594
300.486
207.955
111.831
30.1412
4.14798
1.69465
1.39635
1.42944
1.48974
1.57656
1.68145
1.7874
1.88404
1.94973
1.96819
1.91559
1583.71
1588.63
1588.9
1585.79
1579.49
1570.31
1558.48
1544.06
1527.09
1507.55
1485.36
1460.46
1432.75
1402.09
1368.33
1331.28
1290.74
1246.46
1198.23
1145.76
1088.8
1027.1
960.467
888.781
812.047
730.441
644.382
554.591
462.138
368.457
276.097
185.44
88.6693
18.3423
3.11021
1.46679
1.34006
1.38937
1.44545
1.51713
1.60081
1.68229
1.74976
1.77902
1.75634
1.62326
1552.76
1557.96
1558.43
1555.49
1549.33
1540.27
1528.5
1514.12
1497.14
1477.55
1455.29
1430.28
1402.42
1371.58
1337.6
1300.31
1259.5
1214.94
1166.4
1113.63
1056.39
994.476
927.724
856.074
779.589
698.513
613.339
524.838
434.116
342.737
253.345
163.256
66.1238
10.7172
2.25173
1.27047
1.2807
1.33788
1.3873
1.44703
1.51253
1.57168
1.61166
1.60392
1.53922
1.28523
1521.92
1527.29
1527.99
1525.21
1519.22
1510.28
1498.6
1484.28
1467.32
1447.72
1425.42
1400.33
1372.36
1341.37
1307.23
1269.74
1228.71
1183.91
1135.13
1082.13
1024.69
962.627
895.824
824.261
748.05
667.498
583.15
495.824
406.705
317.523
230.089
137.821
43.9655
6.12065
1.57731
1.13916
1.21593
1.27297
1.31788
1.36808
1.41804
1.45722
1.47149
1.42704
1.31662
0.878955
0.534664
0.540783
0.549023
0.557698
0.564417
0.568536
0.570215
0.569895
0.568038
0.56506
0.561282
0.556964
0.55228
0.547368
0.542341
0.537292
0.532289
0.52737
0.522576
0.517934
0.513477
0.509235
0.505233
0.501504
0.498059
0.494915
0.492093
0.489594
0.487438
0.485646
0.484214
0.483195
0.482573
0.482381
0.48259
0.48316
0.48393
0.484899
0.504372
0.510103
0.517365
0.525527
0.532148
0.536491
0.538584
0.538752
0.537377
0.534836
0.531424
0.527405
0.522966
0.518264
0.513409
0.508482
0.503563
0.498704
0.493958
0.489354
0.484927
0.480708
0.476722
0.473005
0.469572
0.466434
0.463617
0.461119
0.458957
0.457156
0.455704
0.454655
0.453987
0.453727
0.453834
0.454254
0.454813
0.455575
0.473411
0.479097
0.485996
0.493876
0.500458
0.504997
0.507444
0.508018
0.507042
0.50486
0.501748
0.497975
0.49373
0.489179
0.48444
0.479599
0.474745
0.469933
0.46522
0.460643
0.456235
0.452029
0.448053
0.444342
0.440914
0.437778
0.434961
0.432461
0.430289
0.428475
0.427001
0.425919
0.425204
0.424872
0.424878
0.425158
0.425577
0.426284
0.441655
0.447643
0.454743
0.462726
0.469422
0.474154
0.476869
0.477743
0.477056
0.47514
0.472252
0.468662
0.464561
0.460117
0.455459
0.450678
0.445867
0.441084
0.436391
0.431828
0.427429
0.423229
0.419254
0.415542
0.412113
0.408974
0.40615
0.40364
0.401452
0.399616
0.398115
0.396993
0.396226
0.395821
0.395734
0.395904
0.396266
0.39702
0.40904
0.415528
0.423355
0.431889
0.43892
0.443893
0.446821
0.447906
0.447414
0.445676
0.44294
0.439472
0.435468
0.431093
0.426485
0.421739
0.416949
0.412176
0.407487
0.402929
0.39853
0.394326
0.390346
0.386628
0.383192
0.380044
0.377206
0.374681
0.372471
0.37061
0.369078
0.367914
0.367096
0.366622
0.366459
0.366554
0.36692
0.367761
0.375487
0.382597
0.391732
0.401284
0.408889
0.414175
0.417282
0.4185
0.418114
0.416471
0.413815
0.410412
0.406456
0.402111
0.397521
0.392782
0.38799
0.38321
0.378512
0.373944
0.369535
0.365321
0.361331
0.357601
0.354154
0.350991
0.348134
0.345588
0.343354
0.341466
0.339904
0.338701
0.337837
0.337307
0.337087
0.337142
0.33755
0.338487
0.340937
0.348664
0.359911
0.370948
0.379353
0.385012
0.38826
0.389531
0.389162
0.387529
0.384882
0.381482
0.377526
0.373171
0.368564
0.363806
0.358989
0.354185
0.349462
0.344873
0.340445
0.336213
0.332207
0.328461
0.324996
0.321813
0.318933
0.316364
0.314106
0.312192
0.310602
0.309365
0.308464
0.307892
0.307637
0.307682
0.308154
0.30918
0.305101
0.313791
0.328029
0.340996
0.350385
0.356445
0.359777
0.361009
0.360564
0.358853
0.356141
0.352685
0.348678
0.344271
0.339615
0.334809
0.329947
0.3251
0.320339
0.315717
0.311261
0.307006
0.302978
0.299209
0.295721
0.292514
0.289609
0.287015
0.284733
0.282794
0.281182
0.279918
0.278989
0.278391
0.27812
0.278178
0.278723
0.279829
0.268223
0.277956
0.296271
0.311588
0.322092
0.328538
0.331869
0.332954
0.332328
0.330447
0.327592
0.324017
0.319908
0.31541
0.310672
0.305793
0.300863
0.295957
0.291144
0.286478
0.281987
0.277702
0.273647
0.26985
0.266334
0.263099
0.260165
0.257546
0.255241
0.253281
0.251651
0.250367
0.249422
0.24881
0.248542
0.248631
0.249252
0.250424
0.229458
0.241144
0.264848
0.282921
0.294599
0.301364
0.304576
0.305387
0.304466
0.302315
0.299237
0.295477
0.291213
0.286585
0.281732
0.276754
0.271736
0.266755
0.261878
0.25716
0.252625
0.248303
0.244216
0.240385
0.236836
0.23357
0.230606
0.227963
0.225637
0.223659
0.222015
0.220718
0.219766
0.219156
0.218905
0.219037
0.219734
0.220959
0.189262
0.203477
0.233976
0.255209
0.268029
0.274992
0.277934
0.278325
0.276984
0.274459
0.271074
0.267061
0.26259
0.257789
0.252791
0.247689
0.242564
0.237493
0.232542
0.227762
0.223176
0.218811
0.214685
0.210816
0.20723
0.203931
0.200937
0.198268
0.195924
0.193931
0.192279
0.190977
0.190027
0.18943
0.189207
0.189393
0.190163
0.19143
0.148066
0.165441
0.20394
0.228679
0.242491
0.249467
0.251964
0.251777
0.249885
0.246878
0.243099
0.238765
0.234031
0.229017
0.223842
0.218593
0.213344
0.208171
0.203135
0.198284
0.19364
0.189225
0.185055
0.181144
0.177517
0.174183
0.171158
0.168466
0.166105
0.1641
0.162445
0.161144
0.160206
0.159631
0.159446
0.159692
0.160533
0.161833
0.106547
0.128956
0.175314
0.203515
0.218051
0.224806
0.226668
0.22574
0.223161
0.219564
0.215303
0.210578
0.205528
0.20026
0.194879
0.18946
0.184072
0.178784
0.173653
0.168724
0.164015
0.159544
0.155323
0.151366
0.147697
0.144327
0.141272
0.138557
0.136182
0.134168
0.132513
0.13122
0.1303
0.129757
0.129618
0.129927
0.130838
0.132167
0.0646015
0.0971053
0.148763
0.179643
0.194653
0.20098
0.20203
0.200204
0.196805
0.192511
0.187681
0.182496
0.177076
0.171513
0.165894
0.160284
0.154741
0.149327
0.144093
0.139078
0.134296
0.129761
0.125486
0.121478
0.117765
0.114359
0.111275
0.108538
0.10615
0.104131
0.10248
0.101202
0.100307
0.0998035
0.0997171
0.100093
0.101073
0.102428
0.0275857
0.0685891
0.123211
0.156397
0.172014
0.177853
0.177975
0.175122
0.170786
0.165697
0.160216
0.154506
0.148666
0.14277
0.136886
0.131064
0.125353
0.119802
0.114455
0.109345
0.104484
0.0998804
0.0955442
0.091485
0.087726
0.0842834
0.0811714
0.078413
0.0760143
0.0739911
0.0723483
0.0710895
0.0702264
0.0697686
0.0697391
0.0701853
0.0712334
0.0726135
-0.0328765
0.0322947
0.0955141
0.132977
0.149754
0.155152
0.154296
0.150336
0.144981
0.139029
0.13284
0.126563
0.120273
0.114023
0.107857
0.101814
0.0959271
0.0902352
0.084772
0.0795636
0.0746185
0.0699421
0.0655429
0.0614305
0.0576256
0.054146
0.0510054
0.0482248
0.0458137
0.0437859
0.0421494
0.040909
0.040076
0.0396611
0.0396857
0.0402021
0.0413162
0.0427203
1473.89
1479.17
1480.26
1477.69
1471.87
1463.1
1451.55
1437.31
1420.4
1400.81
1378.47
1353.31
1325.23
1294.1
1259.79
1222.1
1180.86
1135.86
1086.89
1033.73
976.197
914.133
847.46
776.194
700.49
620.691
537.366
451.394
364.116
277.008
188.172
91.2973
19.3997
2.54566
1.05347
1.00531
1.1009
1.15357
1.19396
1.23265
1.26337
1.27664
1.25535
1.15837
0.929247
0.116884
1408.78
1413.97
1415.22
1412.84
1407.22
1398.65
1387.28
1373.21
1356.44
1336.96
1314.7
1289.6
1261.55
1230.43
1196.1
1158.4
1117.16
1072.18
1023.27
970.243
912.922
851.183
784.965
714.299
639.345
560.433
478.13
393.359
307.378
219.8
124.826
37.3514
4.56466
1.11514
0.757899
0.838206
0.919113
0.968376
1.00814
1.03899
1.05561
1.05038
1.00724
0.88944
0.665081
0.254462
1343.96
1348.95
1350.23
1348.01
1342.61
1334.28
1323.19
1309.38
1292.87
1273.64
1251.62
1226.73
1198.89
1167.97
1133.83
1096.34
1055.31
1010.58
961.959
909.277
852.381
791.158
725.56
655.624
581.507
503.529
422.275
338.696
253.27
162.182
66.0535
10.8508
1.40219
0.580396
0.579158
0.671181
0.735992
0.785215
0.825213
0.852683
0.864759
0.857134
0.821242
0.741319
0.609414
0.457536
1279.47
1284.19
1285.42
1283.33
1278.16
1270.12
1259.34
1245.88
1229.73
1210.86
1189.2
1164.69
1137.21
1106.66
1072.91
1035.81
995.197
950.913
902.785
850.651
794.368
733.837
669.013
599.936
526.756
449.801
369.705
287.243
200.894
104.911
24.9403
2.58065
0.59616
0.372275
0.439297
0.509024
0.56429
0.613568
0.653067
0.679638
0.69214
0.688712
0.66588
0.618189
0.539272
0.445644
1215.42
1219.8
1220.95
1218.98
1214.03
1206.29
1195.87
1182.81
1167.09
1148.68
1127.5
1103.48
1076.51
1046.48
1013.27
976.73
936.714
893.061
845.61
794.207
738.72
679.05
615.158
547.079
474.961
399.17
320.383
238.613
149.127
54.894
7.28693
0.829448
0.23826
0.232567
0.298295
0.351868
0.40377
0.452302
0.491224
0.518248
0.53279
0.533969
0.519988
0.488127
0.434357
0.364323
1151.89
1155.92
1156.99
1155.13
1150.4
1142.97
1132.95
1120.33
1105.11
1087.22
1066.61
1043.18
1016.83
987.459
954.927
919.103
879.839
836.981
790.373
739.871
685.346
626.707
563.91
496.984
426.093
351.668
274.273
192.128
99.0653
21.5987
1.85008
0.228369
0.0521174
0.105458
0.156006
0.202184
0.25236
0.299452
0.33795
0.366011
0.383124
0.38884
0.382219
0.361966
0.326955
0.280119
1089.02
1092.69
1093.69
1091.92
1087.42
1080.33
1070.71
1058.58
1043.9
1026.61
1006.64
983.893
958.271
929.657
897.927
862.948
824.576
782.66
737.05
687.605
634.205
576.761
515.225
449.628
380.171
307.367
231.228
147.07
55.3159
6.97663
0.564453
-0.0601279
-0.0769966
-0.0241047
0.0153495
0.0593576
0.107937
0.153454
0.19166
0.22092
0.240732
0.25091
0.251051
0.240529
0.218975
0.1874
1026.9
1030.22
1031.16
1029.51
1025.24
1018.49
1009.31
997.696
983.599
966.957
947.689
925.701
900.888
873.132
842.312
808.295
770.942
730.105
685.634
637.395
585.274
529.182
469.073
404.988
337.199
266.221
190.837
104.231
24.591
1.80748
-0.0588217
-0.245475
-0.198932
-0.15779
-0.122201
-0.0782632
-0.0311773
0.0129391
0.0509089
0.0812591
0.103501
0.117525
0.123081
0.119663
0.10684
0.0846446
965.651
968.633
969.527
967.991
963.967
957.575
948.853
937.78
924.304
908.355
889.846
868.682
844.753
817.943
788.127
755.179
718.961
679.327
636.129
589.236
538.536
483.946
425.422
363.039
297.16
228.051
152.287
65.1688
9.29521
0.481388
-0.33865
-0.377985
-0.324003
-0.291433
-0.255699
-0.211801
-0.166138
-0.123205
-0.085473
-0.0542564
-0.0300382
-0.0129673
-0.0033184
-0.00160707
-0.00830154
-0.0237025
905.347
908.013
908.879
907.465
903.696
897.677
889.431
878.926
866.104
850.887
833.186
812.903
789.926
764.137
735.412
703.628
668.65
630.332
588.53
543.112
493.971
441.024
384.241
323.757
260.026
192.679
115.541
34.1097
2.7543
-0.260176
-0.527047
-0.493313
-0.453261
-0.42369
-0.386027
-0.34226
-0.297804
-0.255827
-0.218322
-0.186447
-0.160688
-0.141268
-0.128521
-0.122968
-0.125071
-0.135281
846.065
848.435
849.286
848.004
844.5
838.869
831.118
821.205
809.066
794.619
777.77
758.418
736.452
711.754
684.2
653.666
620.021
583.121
542.825
499.004
451.552
400.388
345.503
287.108
225.636
159.459
81.2901
14.9925
0.454895
-0.59321
-0.665843
-0.612017
-0.581954
-0.552382
-0.513444
-0.470157
-0.426698
-0.385477
-0.348169
-0.315799
-0.288865
-0.267667
-0.252581
-0.244117
-0.242711
-0.248863
787.86
789.952
790.801
789.658
786.432
781.205
773.968
764.671
753.243
739.599
723.642
705.269
684.37
660.826
634.514
605.311
573.083
537.694
499.006
456.895
411.257
362.018
309.202
253.108
193.923
127.979
50.9121
5.78345
-0.16059
-0.766559
-0.777599
-0.735048
-0.710024
-0.678591
-0.638802
-0.595953
-0.553202
-0.512517
-0.475343
-0.442594
-0.414773
-0.392233
-0.375369
-0.364654
-0.360483
-0.363329
730.77
732.599
733.457
732.461
729.526
724.718
718.015
709.357
698.669
685.862
670.837
653.487
633.705
611.374
586.371
558.572
527.845
494.056
457.072
416.777
373.073
325.896
275.323
221.74
164.863
98.8019
27.6138
1.55094
-0.757735
-0.937336
-0.897205
-0.864584
-0.838364
-0.803505
-0.762663
-0.719927
-0.677553
-0.637179
-0.600054
-0.566992
-0.538488
-0.514914
-0.496654
-0.484129
-0.477683
-0.477724
674.815
676.394
677.269
676.428
673.799
669.428
663.28
655.286
645.366
633.429
619.372
603.089
584.472
563.406
539.773
513.449
484.301
452.2
417.018
378.644
336.984
291.991
243.798
192.804
137.866
71.9529
12.8708
-0.196152
-1.06006
-1.07622
-1.01967
-0.991899
-0.963421
-0.926265
-0.88476
-0.842015
-0.799816
-0.759594
-0.722447
-0.689104
-0.660039
-0.635621
-0.616203
-0.602148
-0.593747
-0.591334
619.995
621.333
622.233
621.557
619.249
615.337
609.769
602.465
593.343
582.307
569.254
554.077
536.668
516.917
494.708
469.922
442.43
412.104
378.821
342.472
302.965
260.275
214.596
166.187
112.538
47.8103
5.31176
-0.623142
-1.18853
-1.18346
-1.1403
-1.11607
-1.08557
-1.04704
-1.00506
-0.962204
-0.920033
-0.879842
-0.842605
-0.808978
-0.779408
-0.754244
-0.7338
-0.718382
-0.708242
-0.703639
566.296
567.396
568.328
567.83
565.866
562.438
557.477
550.894
542.598
532.493
520.477
506.443
490.283
471.892
451.159
427.969
402.202
373.733
342.44
308.216
270.974
230.721
187.725
141.993
89.2912
28.3754
1.58053
-1.01521
-1.31555
-1.29702
-1.26627
-1.24067
-1.20664
-1.16642
-1.12373
-1.08054
-1.03823
-0.997947
-0.960539
-0.926593
-0.896527
-0.870657
-0.849258
-0.832589
-0.820869
-0.814297
513.682
514.542
515.518
515.215
513.624
510.713
506.392
500.562
493.125
483.98
473.029
460.168
445.296
428.309
409.102
387.567
363.589
337.048
307.826
275.816
240.94
203.244
163.058
120
68.5318
15.0338
-0.390337
-1.50107
-1.48228
-1.42529
-1.39476
-1.36414
-1.32622
-1.28423
-1.24066
-1.19698
-1.15439
-1.1139
-1.07623
-1.04191
-1.01132
-0.984754
-0.962442
-0.944605
-0.931441
-0.923092
462.102
462.71
463.746
463.664
462.486
460.134
456.494
451.453
444.907
436.753
426.893
415.234
401.681
386.137
368.504
348.678
326.55
302.005
274.927
245.212
212.791
177.747
140.388
99.6929
49.7448
6.84606
-1.13804
-1.65939
-1.60365
-1.54504
-1.51566
-1.48295
-1.4432
-1.40008
-1.35573
-1.3115
-1.26852
-1.22769
-1.18965
-1.15489
-1.12375
-1.09648
-1.07328
-1.05435
-1.03986
-1.0299
411.486
411.809
412.936
413.113
412.402
410.663
407.753
403.543
397.921
390.786
382.045
371.612
359.404
345.334
329.314
311.246
291.025
268.54
243.682
216.35
186.483
154.191
119.659
80.9315
33.2085
2.51155
-1.31158
-1.70871
-1.69256
-1.65801
-1.63273
-1.59912
-1.55827
-1.51419
-1.46901
-1.42411
-1.38059
-1.33929
-1.30079
-1.26553
-1.23379
-1.20582
-1.18176
-1.16179
-1.14607
-1.13465
361.736
361.697
362.986
363.485
363.316
362.26
360.136
356.803
352.141
346.051
338.451
329.265
318.424
305.853
291.474
275.201
256.936
236.576
214.017
189.164
161.968
132.575
101.006
64.2446
20.2613
0.302576
-1.54951
-1.81312
-1.80529
-1.78007
-1.75228
-1.71531
-1.67238
-1.62684
-1.58052
-1.53474
-1.49053
-1.44865
-1.40961
-1.37378
-1.34144
-1.31276
-1.28788
-1.26693
-1.25008
-1.23731
312.737
312.159
313.732
314.672
315.164
314.887
313.619
311.208
307.539
302.518
296.075
288.15
278.688
267.631
254.915
240.464
224.196
206.017
185.834
163.552
139.14
112.78
84.3134
49.8696
11.2478
-1.07684
-1.99337
-1.97908
-1.93685
-1.90724
-1.87259
-1.83084
-1.78516
-1.73778
-1.6901
-1.64329
-1.59826
-1.55569
-1.51604
-1.47962
-1.44666
-1.41729
-1.39163
-1.36978
-1.35188
-1.33791
264.239
262.971
264.946
266.527
267.857
268.497
268.18
266.749
264.101
260.161
254.88
248.218
240.136
230.595
219.549
206.94
192.702
176.755
159.011
139.379
117.843
94.5977
69.2241
37.3287
5.38343
-1.76929
-2.24182
-2.12774
-2.06336
-2.02772
-1.98866
-1.94377
-1.89578
-1.84663
-1.79752
-1.74958
-1.70365
-1.66033
-1.62004
-1.58302
-1.54944
-1.51942
-1.49303
-1.47035
-1.45151
-1.43647
215.407
214.03
216.518
218.976
221.32
223.025
223.77
223.391
221.801
218.956
214.831
209.416
202.698
194.659
185.277
174.517
162.33
148.654
133.408
116.503
97.931
77.8403
55.4219
26.3579
1.92816
-1.96435
-2.29552
-2.22235
-2.17279
-2.14006
-2.10042
-2.05396
-2.00418
-1.95325
-1.90264
-1.85348
-1.80658
-1.76248
-1.72153
-1.68392
-1.64977
-1.61914
-1.59209
-1.56867
-1.549
-1.53302
165.293
165.132
168.258
172.059
175.616
178.495
180.371
181.09
180.584
178.838
175.861
171.672
166.289
159.724
151.983
143.059
132.929
121.551
108.857
94.7685
79.284
62.4688
43.0163
17.2886
0.0344488
-2.04827
-2.32449
-2.30932
-2.28283
-2.25292
-2.21166
-2.16287
-2.11072
-2.05768
-2.00537
-1.95489
-1.90698
-1.86208
-1.82048
-1.78231
-1.74763
-1.71647
-1.68884
-1.66478
-1.6444
-1.62761
114.449
115.811
119.656
125.565
130.807
135.057
138.11
139.91
140.458
139.775
137.905
134.898
130.802
125.664
119.519
112.395
104.299
95.2193
85.1147
73.9263
61.684
48.4289
32.3395
10.5074
-1.0517
-2.22168
-2.43126
-2.4293
-2.40634
-2.37095
-2.32411
-2.27097
-2.21543
-2.1598
-2.10556
-2.05366
-2.00471
-1.95905
-1.91686
-1.87818
-1.84304
-1.81142
-1.78332
-1.75873
-1.73774
-1.72026
60.5098
68.1745
72.3217
79.9108
86.7758
92.5535
96.9003
99.8028
101.364
101.683
100.85
98.9472
96.0553
92.2544
87.615
82.2005
76.0603
69.2247
61.6955
53.4546
44.6137
35.3128
23.2892
5.82462
-1.88067
-2.62389
-2.60484
-2.57247
-2.53827
-2.49133
-2.43604
-2.37718
-2.31761
-2.25911
-2.20285
-2.14955
-2.09964
-2.0533
-2.01061
-1.97153
-1.93602
-1.90405
-1.87557
-1.85054
-1.82907
-1.81101
12.3893
29.2262
31.5189
38.7926
45.692
51.8292
56.759
60.4268
62.8457
64.0661
64.1831
63.2955
61.5091
58.9435
55.7093
51.9229
47.6968
43.1311
38.2919
33.2225
28.1347
23.214
15.5561
2.40353
-2.43251
-2.95534
-2.77204
-2.7117
-2.66451
-2.60691
-2.54385
-2.47954
-2.41612
-2.35491
-2.29681
-2.24228
-2.19156
-2.14471
-2.10166
-2.06232
-2.02659
-1.99439
-1.96564
-1.94029
-1.91842
-1.89991
-3.07013
2.30107
6.13257
11.426
15.247
18.9502
22.2234
25.0482
27.1991
28.5691
29.1697
29.0273
28.2219
26.8903
25.1691
23.2324
21.2631
19.4107
17.7677
16.3498
15.3956
15.2178
11.103
-0.230998
-2.57729
-3.00767
-2.88363
-2.82973
-2.77711
-2.71343
-2.64506
-2.57653
-2.50996
-2.44656
-2.38701
-2.33157
-2.28033
-2.23318
-2.18998
-2.15055
-2.11475
-2.08246
-2.05357
-2.02802
-2.00588
-1.98701
-3.06351
-2.78034
-3.04109
-1.5882
1.56262
4.14039
5.0497
5.17035
5.04547
5.01083
5.04121
4.99511
4.84189
4.66736
4.56061
4.66213
5.11722
5.96222
7.11102
8.3094
9.49816
11.4885
10.7624
-1.62669
-2.83926
-3.03421
-2.99415
-2.94651
-2.88478
-2.81355
-2.73996
-2.66773
-2.59864
-2.53365
-2.47315
-2.41724
-2.36581
-2.31865
-2.27553
-2.23621
-2.20052
-2.1683
-2.13942
-2.11378
-2.09149
-2.07238
-3.11917
-3.11646
-3.13681
-3.18146
-3.38359
-3.3852
-2.67704
-1.7313
-0.712826
0.162733
0.81406
1.18358
1.26337
1.18204
0.926508
0.556912
0.144575
-0.257952
-0.645596
-1.00817
-1.33006
-1.11024
0.842484
-2.79507
-3.54562
-3.21849
-3.13576
-3.07044
-2.99058
-2.9081
-2.82835
-2.75271
-2.68178
-2.61588
-2.55505
-2.49915
-2.44794
-2.40109
-2.35831
-2.31933
-2.28393
-2.25194
-2.22321
-2.19763
-2.17532
-2.15608
-3.17848
-3.16314
-3.19065
-3.221
-3.25463
-3.26818
-3.34318
-3.5089
-3.57902
-3.60469
-3.62016
-3.63249
-3.64501
-3.66112
-3.6774
-3.695
-3.71315
-3.73121
-3.74844
-3.77053
-3.79361
-3.86021
-3.9603
-3.7774
-3.67386
-3.42831
-3.28429
-3.17937
-3.08252
-2.99188
-2.90801
-2.83047
-2.75888
-2.693
-2.63257
-2.57726
-2.5267
-2.48051
-2.43836
-2.39994
-2.36503
-2.33343
-2.305
-2.27962
-2.2574
-2.23816
-3.23382
-3.22423
-3.24123
-3.26555
-3.29315
-3.31458
-3.33567
-3.37717
-3.40903
-3.4317
-3.4512
-3.47059
-3.49162
-3.5152
-3.5417
-3.57145
-3.60436
-3.64039
-3.68004
-3.72369
-3.77079
-3.82458
-3.86953
-3.84609
-3.68882
-3.50197
-3.36368
-3.25247
-3.15268
-3.06118
-2.97731
-2.90034
-2.82971
-2.76497
-2.70574
-2.6516
-2.60215
-2.55698
-2.51573
-2.47811
-2.44387
-2.41284
-2.38484
-2.35979
-2.33779
-2.31865
-3.28771
-3.28497
-3.29357
-3.31057
-3.33435
-3.35982
-3.38708
-3.41956
-3.44929
-3.47414
-3.49577
-3.51607
-3.53664
-3.55836
-3.58167
-3.60662
-3.63324
-3.6615
-3.69133
-3.72203
-3.75167
-3.77708
-3.78736
-3.75475
-3.64673
-3.51622
-3.40161
-3.29943
-3.20511
-3.11773
-3.03711
-2.96287
-2.89464
-2.83206
-2.77477
-2.72236
-2.67444
-2.63062
-2.59055
-2.55394
-2.52056
-2.49024
-2.46283
-2.43823
-2.41655
-2.39762
-3.33902
-3.34207
-3.34704
-3.3584
-3.37603
-3.39782
-3.42315
-3.45123
-3.47817
-3.50223
-3.52381
-3.54389
-3.56341
-3.58312
-3.60328
-3.62401
-3.64527
-3.66696
-3.68882
-3.70961
-3.72654
-3.73558
-3.72837
-3.69038
-3.6136
-3.51825
-3.42362
-3.3328
-3.24643
-3.16522
-3.0895
-3.0193
-2.95448
-2.89482
-2.84005
-2.78983
-2.74381
-2.70162
-2.66296
-2.62756
-2.59521
-2.56575
-2.53905
-2.51501
-2.49377
-2.47513
-3.38776
-3.39339
-3.39812
-3.40686
-3.42024
-3.43747
-3.45785
-3.48032
-3.50271
-3.52376
-3.54328
-3.56168
-3.57947
-3.59701
-3.61442
-3.63173
-3.6489
-3.66571
-3.68167
-3.6954
-3.70419
-3.70419
-3.68981
-3.65373
-3.59383
-3.51878
-3.43904
-3.35898
-3.28099
-3.20657
-3.13647
-3.07098
-3.01016
-2.95392
-2.90208
-2.8544
-2.81055
-2.77024
-2.73318
-2.69914
-2.66795
-2.63948
-2.6136
-2.59024
-2.56952
-2.55125
-3.43265
-3.43873
-3.44459
-3.45273
-3.46389
-3.47796
-3.49446
-3.5125
-3.53083
-3.54854
-3.56539
-3.58151
-3.59711
-3.61222
-3.62684
-3.64094
-3.65442
-3.667
-3.67797
-3.68591
-3.68853
-3.68278
-3.665
-3.63157
-3.58159
-3.51952
-3.45138
-3.38107
-3.31128
-3.24377
-3.17953
-3.11905
-3.06254
-3.01002
-2.9614
-2.91648
-2.87501
-2.83673
-2.80142
-2.76888
-2.73897
-2.71158
-2.68662
-2.66401
-2.64388
-2.62605
-3.47301
-3.47953
-3.48657
-3.49487
-3.50499
-3.51709
-3.53087
-3.54569
-3.56071
-3.57541
-3.58962
-3.60335
-3.61654
-3.62906
-3.64085
-3.65187
-3.66198
-3.67077
-3.67743
-3.68064
-3.67854
-3.66891
-3.6494
-3.6181
-3.57471
-3.52174
-3.46288
-3.40119
-3.33909
-3.27831
-3.21991
-3.16452
-3.11244
-3.06379
-3.01852
-2.9765
-2.93753
-2.90139
-2.86792
-2.83696
-2.80842
-2.7822
-2.75823
-2.73644
-2.71695
-2.6996
-3.50995
-3.51701
-3.52496
-3.53361
-3.5432
-3.554
-3.5658
-3.57813
-3.59052
-3.60268
-3.61453
-3.62592
-3.63665
-3.64655
-3.65556
-3.66366
-3.67067
-3.67609
-3.67909
-3.67851
-3.67291
-3.66071
-3.64044
-3.61104
-3.57252
-3.52643
-3.47515
-3.42096
-3.36586
-3.3114
-3.25865
-3.20826
-3.1606
-3.11583
-3.07396
-3.03488
-2.99844
-2.9645
-2.93292
-2.9036
-2.87648
-2.85149
-2.82855
-2.80761
-2.78882
-2.77199
-3.5447
-3.55215
-3.56079
-3.56976
-3.57905
-3.58889
-3.59915
-3.60954
-3.61985
-3.62995
-3.63969
-3.64886
-3.65721
-3.66459
-3.67102
-3.67647
-3.68068
-3.68313
-3.68304
-3.67944
-3.67126
-3.65743
-3.63702
-3.60946
-3.57486
-3.53426
-3.48924
-3.44151
-3.39267
-3.34404
-3.29661
-3.25102
-3.20766
-3.1667
-3.12816
-3.09199
-3.05808
-3.02633
-2.99666
-2.969
-2.94333
-2.91958
-2.89771
-2.87766
-2.85957
-2.84331
-3.57806
-3.58579
-3.59489
-3.6041
-3.61315
-3.62222
-3.63128
-3.6402
-3.6489
-3.65728
-3.66513
-3.67222
-3.67836
-3.68351
-3.68767
-3.69077
-3.69251
-3.69238
-3.68969
-3.68369
-3.67364
-3.65885
-3.63872
-3.61294
-3.58166
-3.54558
-3.50582
-3.46366
-3.42035
-3.37702
-3.33452
-3.29346
-3.25419
-3.21687
-3.18154
-3.14818
-3.11673
-3.08713
-3.05934
-3.03335
-3.00912
-2.98663
-2.96583
-2.94668
-2.92933
-2.91365
-3.6107
-3.61862
-3.62799
-3.63732
-3.6461
-3.65453
-3.66266
-3.67048
-3.67791
-3.6848
-3.69094
-3.69616
-3.70039
-3.70364
-3.70588
-3.70696
-3.70655
-3.70419
-3.69936
-3.69152
-3.68019
-3.66493
-3.64536
-3.62131
-3.59289
-3.56062
-3.52531
-3.48794
-3.44951
-3.41094
-3.37297
-3.3361
-3.30064
-3.26673
-3.23443
-3.20374
-3.17465
-3.14713
-3.12119
-3.09681
-3.07401
-3.05276
-3.03303
-3.01479
-2.99819
-2.98311
-3.64327
-3.65124
-3.66077
-3.67007
-3.67857
-3.68648
-3.6939
-3.70085
-3.70719
-3.71275
-3.71737
-3.72101
-3.72366
-3.72535
-3.72598
-3.72532
-3.72305
-3.71883
-3.71229
-3.70312
-3.691
-3.67565
-3.65682
-3.63439
-3.60847
-3.57944
-3.54794
-3.51471
-3.48058
-3.44628
-3.41239
-3.37934
-3.34736
-3.3166
-3.28711
-3.25893
-3.23207
-3.20654
-3.18236
-3.15956
-3.13814
-3.11812
-3.09944
-3.0821
-3.06626
-3.05179
-3.67627
-3.68422
-3.69376
-3.70294
-3.71115
-3.71864
-3.7255
-3.73169
-3.73704
-3.74141
-3.74477
-3.74714
-3.74853
-3.74892
-3.74816
-3.74599
-3.74216
-3.73645
-3.72866
-3.71861
-3.7061
-3.69093
-3.67293
-3.652
-3.62827
-3.60204
-3.57381
-3.5442
-3.51385
-3.48332
-3.45308
-3.42344
-3.39461
-3.36671
-3.33981
-3.31395
-3.28917
-3.26552
-3.24302
-3.22172
-3.20165
-3.1828
-3.16517
-3.14873
-3.13365
-3.11979
-3.71003
-3.71791
-3.72733
-3.73632
-3.74425
-3.75137
-3.75773
-3.76321
-3.76766
-3.77104
-3.77341
-3.77481
-3.77521
-3.77451
-3.77254
-3.7691
-3.76401
-3.75719
-3.74855
-3.738
-3.72539
-3.71058
-3.69343
-3.6739
-3.6521
-3.62831
-3.60295
-3.57649
-3.54944
-3.52223
-3.4952
-3.46859
-3.44258
-3.41726
-3.3927
-3.36897
-3.34612
-3.32421
-3.30329
-3.28342
-3.26463
-3.24694
-3.23032
-3.21478
-3.20044
-3.1872
-3.74484
-3.75258
-3.7618
-3.77052
-3.77816
-3.7849
-3.79074
-3.79555
-3.79926
-3.80189
-3.80354
-3.80421
-3.80381
-3.80217
-3.79917
-3.79468
-3.78865
-3.78106
-3.77192
-3.76115
-3.74866
-3.73432
-3.71803
-3.6998
-3.67975
-3.65812
-3.63525
-3.61155
-3.58737
-3.56305
-3.53882
-3.51489
-3.49136
-3.46834
-3.4459
-3.4241
-3.40302
-3.38272
-3.36329
-3.34477
-3.32721
-3.31062
-3.295
-3.28032
-3.26672
-3.25409
-3.7809
-3.78842
-3.79738
-3.80583
-3.81313
-3.81945
-3.82476
-3.82899
-3.83213
-3.83424
-3.83536
-3.83544
-3.83432
-3.83187
-3.828
-3.82271
-3.81603
-3.808
-3.79863
-3.78789
-3.77566
-3.76187
-3.74645
-3.72943
-3.71094
-3.69122
-3.67056
-3.64925
-3.62756
-3.60574
-3.58396
-3.56235