/*--------------------------------*- C++ -*----------------------------------*\
  =========                 |
  \\      /  F ield         | OpenFOAM: The Open Source CFD Toolbox
   \\    /   O peration     | Website:  https://openfoam.org
    \\  /    A nd           | Version:  7
     \\/     M anipulation  |
\*---------------------------------------------------------------------------*/
FoamFile
{
    version     2.0;
    format      ascii;
    class       volScalarField;
    location    "0.15";
    object      p_rgh;
}
// * * * * * * * * * * * * * * * * * * * * * * * * * * * * * * * * * * * * * //

dimensions      [1 -1 -2 0 0 0 0];

internalField   nonuniform List<scalar> 
9072
(
2000.2
2004.12
2007.29
2008.32
2006.26
2001.05
1992.92
1982.05
1968.54
1952.47
1933.86
1912.73
1889.05
1862.76
1833.79
1802.02
1767.3
1729.44
1688.19
1643.23
1594.18
1540.56
1481.77
1417.16
1345.94
1267.33
1180.6
1085.35
981.792
871.273
756.695
642.861
538.049
449.395
375.944
314.271
262.09
217.21
177.495
141.564
108.765
78.3365
45.2294
16.1149
9.82983
11.2229
1999.53
2002.48
2004.25
2004.29
2001.67
1996.14
1987.81
1976.79
1963.17
1946.98
1928.25
1906.99
1883.16
1856.69
1827.5
1795.48
1760.45
1722.22
1680.53
1635.05
1585.37
1531.02
1471.4
1405.83
1333.59
1253.94
1166.25
1070.27
966.414
856.23
742.681
630.558
525.94
435.487
365.88
310.939
265.429
224.251
184.867
146.698
108.418
67.3497
28.8068
6.18752
6.93571
9.60052
1998.76
2001.44
2001.89
2000.65
1997.12
1990.94
1982.13
1970.74
1956.8
1940.33
1921.33
1899.78
1875.63
1848.83
1819.25
1786.78
1751.24
1712.4
1670.01
1623.72
1573.11
1517.69
1456.88
1390.04
1316.5
1235.62
1146.94
1050.42
946.71
837.572
726.098
617.052
516.542
431.573
362.614
309.744
266.298
226.397
187.065
147.949
104.873
49.1037
11.5866
4.99194
5.56738
7.54718
1997.74
2000.69
2000.36
1998.06
1993.6
1986.68
1977.27
1965.39
1951.01
1934.15
1914.77
1892.85
1868.31
1841.08
1811.04
1778.04
1741.91
1702.41
1659.26
1612.1
1560.52
1504.03
1442.08
1374.06
1299.37
1217.49
1128.1
1031.35
928.071
820.174
710.844
604.754
507.471
424.639
357.916
306.55
264.522
225.662
186.807
146.433
89.5109
25.6777
5.36526
4.32077
4.99018
6.01355
1996.5
1999.8
1999.1
1996.1
1990.91
1983.33
1973.35
1960.96
1946.13
1928.85
1909.07
1886.75
1861.8
1834.13
1803.62
1770.11
1733.4
1693.26
1649.39
1601.45
1549.01
1491.6
1428.7
1359.73
1284.18
1201.61
1111.83
1015.11
912.412
805.707
698.182
594.348
499.364
418.129
352.532
301.671
260.291
221.955
182.846
127.976
50.3016
7.85412
3.92815
3.73459
4.2122
5.00607
1995.05
1998.65
1997.8
1994.37
1988.64
1980.52
1970.04
1957.19
1941.95
1924.26
1904.09
1881.38
1856.02
1827.93
1796.96
1762.95
1725.7
1684.96
1640.44
1591.79
1538.6
1480.41
1416.72
1347.02
1270.84
1187.82
1097.89
1001.4
899.382
793.812
687.795
585.647
492.16
411.609
345.733
294.384
253.157
214.698
161.201
74.445
14.0307
3.62865
3.31288
3.37638
3.71347
4.3654
1993.43
1997.25
1996.38
1992.7
1986.6
1978.07
1967.17
1953.92
1938.29
1920.24
1899.7
1876.6
1850.86
1822.36
1790.95
1756.47
1718.71
1677.42
1632.3
1583.01
1529.15
1470.29
1405.95
1335.66
1259.02
1175.76
1085.87
989.763
888.519
784.071
679.378
578.508
485.764
404.554
336.682
283.698
241.64
185.698
90.8679
19.6494
3.90516
2.95518
2.98609
3.13991
3.41644
3.92712
1991.69
1995.66
1994.85
1991.06
1984.72
1975.88
1964.66
1951.07
1935.11
1916.71
1895.83
1872.39
1846.28
1817.38
1785.56
1750.63
1712.39
1670.58
1624.9
1575.03
1520.58
1461.13
1396.24
1325.5
1248.55
1165.2
1075.51
979.933
879.569
776.273
672.81
572.952
480.26
396.812
324.177
264.008
195.117
92.3967
20.9363
4.79869
2.717
2.61828
2.7852
2.98211
3.21522
3.57384
1989.86
1993.94
1993.26
1989.47
1982.99
1973.94
1962.46
1948.6
1932.35
1913.66
1892.47
1868.7
1842.25
1812.99
1780.77
1745.43
1706.73
1664.42
1618.23
1567.83
1512.84
1452.88
1387.54
1316.45
1239.32
1156.01
1066.65
971.747
872.378
770.305
668.076
569.152
475.968
388.135
297.674
189.872
76.1967
16.0656
4.70431
2.7821
2.35616
2.45686
2.65259
2.84845
3.04164
3.27092
1988
1992.18
1991.67
1987.96
1981.4
1972.22
1960.56
1946.49
1930
1911.06
1889.59
1865.53
1838.76
1809.16
1776.58
1740.83
1701.71
1658.95
1612.28
1561.38
1505.92
1445.51
1379.79
1308.43
1231.23
1148.09
1059.19
965.082
866.834
766.098
665.218
567.386
473.434
376.524
226.022
64.8119
8.0148
3.14967
2.49115
2.16651
2.21466
2.36541
2.54805
2.71867
2.86971
3.00262
1986.15
1990.46
1990.14
1986.54
1979.98
1970.73
1958.95
1944.72
1928.05
1908.88
1887.18
1862.86
1835.8
1805.89
1772.97
1736.86
1697.33
1654.14
1607.03
1555.68
1499.78
1438.98
1372.95
1301.42
1224.22
1141.35
1053.03
959.84
862.849
763.598
664.298
567.894
473.199
359.088
146.561
11.2529
2.87914
2.23219
2.015
2.02798
2.14515
2.29434
2.45109
2.58808
2.69357
2.75936
1984.35
1988.82
1988.7
1985.24
1978.74
1969.47
1957.62
1943.28
1926.46
1907.13
1885.23
1860.67
1833.36
1803.17
1769.94
1733.48
1693.59
1650
1602.48
1550.73
1494.43
1433.28
1367
1295.36
1218.26
1135.74
1048.09
955.937
860.336
762.741
665.339
570.749
475.305
324.839
83.6931
4.68078
2.36666
1.9651
1.90833
1.97948
2.09845
2.22711
2.35354
2.45501
2.51587
2.5249
1982.63
1987.3
1987.38
1984.09
1977.67
1968.42
1956.56
1942.16
1925.24
1905.78
1883.72
1858.97
1831.44
1801
1767.49
1730.72
1690.48
1646.54
1598.64
1546.51
1489.87
1428.42
1361.94
1290.25
1213.31
1131.22
1044.32
953.303
859.214
763.461
668.353
575.822
474.091
248.307
31.231
3.48268
2.07513
1.87249
1.87636
1.95071
2.05205
2.15637
2.25252
2.31805
2.33645
2.28376
1981.01
1985.93
1986.2
1983.08
1976.78
1967.61
1955.77
1941.36
1924.39
1904.84
1882.66
1857.76
1830.04
1799.38
1765.62
1728.58
1688.03
1643.76
1595.52
1543.06
1486.1
1424.4
1357.76
1286.08
1209.34
1127.74
1041.68
951.887
859.435
765.753
673.394
582.736
446.379
151.695
8.45266
2.64384
1.92414
1.82522
1.85155
1.91721
1.99932
2.0801
2.14733
2.17654
2.15382
2.02072
1979.49
1984.69
1985.15
1982.21
1976.06
1967
1955.23
1940.85
1923.87
1904.28
1882.02
1857.01
1829.14
1798.3
1764.33
1727.04
1686.22
1641.66
1593.12
1540.36
1483.12
1421.2
1354.45
1282.8
1206.31
1125.24
1040.06
951.564
860.842
769.463
680.071
589.978
390.506
72.3633
4.74269
2.13867
1.80962
1.78507
1.81844
1.87506
1.93979
1.99862
2.0385
2.03074
1.96603
1.71203
1978.08
1983.45
1984.15
1981.37
1975.37
1966.43
1954.76
1940.43
1923.48
1903.88
1881.57
1856.48
1828.51
1797.53
1763.38
1725.9
1684.86
1640.07
1591.29
1538.29
1480.85
1418.78
1351.98
1280.42
1204.21
1123.65
1039.31
951.98
862.86
773.678
686.244
593.94
301.341
25.9492
3.27113
1.85854
1.7301
1.74042
1.77634
1.82484
1.87439
1.91343
1.92767
1.88321
1.7728
1.33514
0.549379
0.555498
0.563738
0.572413
0.579132
0.58325
0.58493
0.584609
0.582753
0.579775
0.575997
0.571679
0.566995
0.562082
0.557055
0.552007
0.547004
0.542084
0.53729
0.532648
0.528192
0.52395
0.519948
0.516218
0.512774
0.50963
0.506808
0.504308
0.502152
0.50036
0.498928
0.49791
0.497288
0.497096
0.497304
0.497875
0.498645
0.499614
0.548516
0.554247
0.561509
0.569671
0.576292
0.580635
0.582728
0.582896
0.581521
0.57898
0.575568
0.57155
0.56711
0.562408
0.557553
0.552626
0.547707
0.542848
0.538102
0.533498
0.529071
0.524852
0.520866
0.517149
0.513716
0.510578
0.507761
0.505263
0.503101
0.5013
0.499848
0.498799
0.498131
0.497871
0.497978
0.498398
0.498957
0.499719
0.546984
0.552671
0.55957
0.56745
0.574031
0.578571
0.581017
0.581592
0.580615
0.578433
0.575322
0.571548
0.567304
0.562753
0.558013
0.553173
0.548318
0.543506
0.538794
0.534217
0.529808
0.525603
0.521627
0.517915
0.514487
0.511352
0.508535
0.506035
0.503863
0.502048
0.500574
0.499493
0.498778
0.498445
0.498452
0.498731
0.499151
0.499858
0.544658
0.550646
0.557746
0.565728
0.572425
0.577157
0.579872
0.580746
0.580059
0.578143
0.575255
0.571665
0.567564
0.56312
0.558461
0.553681
0.54887
0.544087
0.539393
0.534831
0.530432
0.526231
0.522257
0.518545
0.515116
0.511977
0.509152
0.506643
0.504454
0.502619
0.501117
0.499996
0.499229
0.498824
0.498737
0.498907
0.499269
0.500022
0.541473
0.54796
0.555787
0.564321
0.571352
0.576325
0.579253
0.580338
0.579846
0.578108
0.575372
0.571904
0.5679
0.563525
0.558917
0.554172
0.549381
0.544608
0.53992
0.535361
0.530962
0.526758
0.522778
0.51906
0.515625
0.512476
0.509638
0.507113
0.504903
0.503042
0.50151
0.500346
0.499528
0.499055
0.498891
0.498986
0.499352
0.500193
0.537349
0.544458
0.553594
0.563145
0.570751
0.576036
0.579144
0.580362
0.579976
0.578333
0.575677
0.572273
0.568317
0.563973
0.559382
0.554644
0.549851
0.545072
0.540373
0.535805
0.531397
0.527182
0.523192
0.519462
0.516015
0.512852
0.509995
0.507449
0.505216
0.503328
0.501765
0.500563
0.499698
0.499169
0.498948
0.499004
0.499412
0.500348
0.532228
0.539955
0.551202
0.562239
0.570644
0.576303
0.579551
0.580822
0.580453
0.57882
0.576173
0.572773
0.568817
0.564462
0.559855
0.555096
0.55028
0.545476
0.540753
0.536164
0.531736
0.527504
0.523498
0.519751
0.516286
0.513104
0.510224
0.507655
0.505397
0.503483
0.501893
0.500656
0.499755
0.499183
0.498928
0.498973
0.499444
0.500471
0.525821
0.534511
0.548749
0.561716
0.571105
0.577165
0.580498
0.581729
0.581284
0.579574
0.576861
0.573405
0.569398
0.564991
0.560335
0.555529
0.550667
0.54582
0.541059
0.536437
0.531981
0.527726
0.523699
0.51993
0.516441
0.513235
0.510329
0.507735
0.505453
0.503514
0.501902
0.500638
0.49971
0.499111
0.49884
0.498898
0.499443
0.500549
0.518373
0.528105
0.54642
0.561738
0.572242
0.578688
0.582019
0.583104
0.582478
0.580597
0.577742
0.574166
0.570057
0.56556
0.560821
0.555942
0.551012
0.546106
0.541293
0.536628
0.532137
0.527851
0.523797
0.52
0.516484
0.513249
0.510314
0.507696
0.505391
0.503431
0.5018
0.500516
0.499571
0.49896
0.498692
0.49878
0.499402
0.500574
0.509037
0.520723
0.544427
0.5625
0.574178
0.580943
0.584155
0.584965
0.584045
0.581894
0.578816
0.575056
0.570792
0.566164
0.561311
0.556332
0.551315
0.546334
0.541457
0.536739
0.532204
0.527882
0.523795
0.519964
0.516415
0.513149
0.510185
0.507541
0.505216
0.503238
0.501594
0.500297
0.499345
0.498735
0.498484
0.498616
0.499313
0.500538
0.49827
0.512485
0.542984
0.564217
0.577037
0.584
0.586942
0.587333
0.585993
0.583467
0.580082
0.57607
0.571598
0.566797
0.561799
0.556697
0.551572
0.546502
0.54155
0.53677
0.532184
0.527819
0.523693
0.519825
0.516239
0.512939
0.509945
0.507276
0.504932
0.502939
0.501287
0.499985
0.499036
0.498438
0.498215
0.498401
0.499171
0.500438
0.486504
0.503878
0.542378
0.567117
0.580929
0.587905
0.590402
0.590215
0.588322
0.585316
0.581536
0.577202
0.572468
0.567454
0.56228
0.557031
0.551782
0.546609
0.541572
0.536722
0.532078
0.527663
0.523492
0.519581
0.515955
0.512621
0.509596
0.506904
0.504543
0.502538
0.500883
0.499582
0.498643
0.498069
0.497884
0.498129
0.49897
0.500271
0.474414
0.496823
0.543181
0.571382
0.585918
0.592673
0.594535
0.593607
0.591028
0.587431
0.58317
0.578445
0.573395
0.568127
0.562746
0.557327
0.551939
0.546651
0.54152
0.536592
0.531882
0.527411
0.52319
0.519233
0.515564
0.512194
0.509139
0.506424
0.504049
0.502035
0.50038
0.499087
0.498167
0.497624
0.497485
0.497794
0.498705
0.500034
0.461898
0.494402
0.54606
0.57694
0.59195
0.598276
0.599327
0.5975
0.594101
0.589807
0.584977
0.579792
0.574372
0.568809
0.56319
0.557581
0.552038
0.546624
0.541389
0.536374
0.531592
0.527058
0.522782
0.518775
0.515062
0.511656
0.508572
0.505835
0.503447
0.501427
0.499776
0.498498
0.497603
0.4971
0.497013
0.49739
0.498369
0.499724
0.454311
0.495315
0.549936
0.583123
0.59874
0.604578
0.604701
0.601848
0.597512
0.592422
0.586942
0.581232
0.575392
0.569496
0.563611
0.55779
0.552078
0.546528
0.541181
0.536071
0.53121
0.526606
0.52227
0.518211
0.514452
0.511009
0.507897
0.505139
0.50274
0.500717
0.499074
0.497815
0.496952
0.496494
0.496465
0.496911
0.497959
0.499339
0.423279
0.48845
0.551669
0.589132
0.605909
0.611307
0.610451
0.606491
0.601136
0.595184
0.588995
0.582718
0.576429
0.570178
0.564013
0.557969
0.552082
0.54639
0.540927
0.535719
0.530774
0.526097
0.521698
0.517586
0.513781
0.510301
0.507161
0.50438
0.501969
0.499941
0.498305
0.497064
0.496231
0.495816
0.495841
0.496357
0.497471
0.498875
1976.06
1981.34
1982.43
1979.86
1974.04
1965.27
1953.72
1939.48
1922.57
1902.98
1880.64
1855.48
1827.4
1796.27
1761.95
1724.27
1683.03
1638.03
1589.06
1535.9
1478.37
1416.3
1349.63
1278.36
1202.66
1122.86
1039.53
953.562
866.284
779.176
690.347
540.816
156.564
6.22107
2.18565
1.64203
1.62913
1.66059
1.69705
1.73504
1.76561
1.77883
1.75753
1.66055
1.43142
0.619061
1973.55
1978.73
1979.99
1977.61
1971.99
1963.41
1952.05
1937.98
1921.21
1901.73
1879.47
1854.36
1826.31
1795.19
1760.86
1723.17
1681.92
1636.95
1588.04
1535.01
1477.69
1415.95
1349.73
1279.06
1204.11
1125.2
1042.9
958.125
872.144
784.566
689.542
345.56
22.7111
2.82735
1.56808
1.45664
1.49433
1.53506
1.57326
1.60383
1.6204
1.61516
1.57201
1.45421
1.22985
0.81923
1971.32
1976.31
1977.59
1975.37
1969.97
1961.65
1950.55
1936.74
1920.23
1901
1878.98
1854.09
1826.25
1795.33
1761.2
1723.7
1682.67
1637.94
1589.32
1536.64
1479.74
1418.52
1352.92
1282.99
1208.87
1130.89
1049.64
966.059
880.633
789.554
587.928
112.79
4.32094
1.62923
1.29819
1.31787
1.36732
1.41335
1.45272
1.48008
1.49213
1.4845
1.44861
1.36868
1.23678
1.0849
1969.43
1974.15
1975.38
1973.29
1968.12
1960.08
1949.3
1935.84
1919.69
1900.82
1879.16
1854.65
1827.17
1796.62
1762.87
1725.77
1685.16
1640.87
1592.75
1540.61
1484.33
1423.8
1358.97
1289.9
1216.72
1139.76
1059.66
977.203
890.854
794.834
337.747
12.0373
2.09859
1.21596
1.16044
1.20553
1.25563
1.30381
1.34308
1.36961
1.3821
1.37867
1.35584
1.30815
1.22923
1.1356
1967.97
1972.36
1973.51
1971.54
1966.59
1958.85
1948.43
1935.37
1919.65
1901.24
1880.06
1856.03
1829.06
1799.04
1765.83
1729.29
1689.27
1645.62
1598.17
1546.76
1491.28
1431.61
1367.72
1299.64
1227.52
1151.73
1072.94
991.17
901.704
666.387
105.579
3.4766
1.28975
1.03836
1.0611
1.10654
1.15679
1.20496
1.2438
1.27081
1.28535
1.28653
1.27255
1.24068
1.18691
1.11688
1967.05
1971.07
1972.15
1970.28
1965.55
1958.13
1948.1
1935.49
1920.26
1902.38
1881.77
1858.34
1831.99
1802.61
1770.08
1734.26
1694.99
1652.14
1605.53
1555.03
1500.5
1441.86
1379.06
1312.14
1241.25
1166.82
1089.43
1007.28
914.192
397.283
11.6035
1.73134
0.968572
0.938368
0.974433
1.018
1.06766
1.11464
1.15311
1.18117
1.19828
1.204
1.19737
1.17712
1.14211
1.09527
1966.77
1970.44
1971.44
1969.68
1965.17
1958.08
1948.47
1936.33
1921.65
1904.36
1884.39
1861.65
1836.02
1807.41
1775.68
1740.7
1702.33
1660.41
1614.8
1565.36
1511.96
1454.51
1392.98
1327.38
1257.92
1185.12
1108.98
1024.83
810.127
139.933
3.33636
1.07531
0.836888
0.859416
0.894111
0.937309
0.985734
1.03122
1.06942
1.09867
1.11849
1.12866
1.1288
1.11828
1.09673
1.06515
1967.25
1970.57
1971.51
1969.86
1965.59
1958.84
1949.66
1938.04
1923.95
1907.31
1888.04
1866.05
1841.24
1813.48
1782.66
1748.64
1711.29
1670.45
1625.98
1577.74
1525.62
1469.53
1409.42
1345.34
1277.55
1206.57
1131.19
1044.58
552.132
22.1798
1.59429
0.782988
0.753539
0.784378
0.818451
0.862145
0.909186
0.953293
0.99126
1.02161
1.04385
1.05787
1.06343
1.06001
1.04719
1.02499
1968.6
1971.58
1972.47
1970.94
1966.91
1960.52
1951.8
1940.73
1927.25
1911.3
1892.79
1871.63
1847.7
1820.89
1791.07
1758.13
1721.91
1682.27
1639.08
1592.18
1541.48
1486.89
1428.37
1365.99
1300.11
1231
1155.23
1023
251.295
3.83392
0.948779
0.657468
0.682995
0.712075
0.747337
0.791163
0.836813
0.879743
0.917475
0.948691
0.972909
0.98998
0.999628
1.00134
0.994645
0.979244
1970.89
1973.56
1974.42
1973.01
1969.24
1963.22
1954.97
1944.47
1931.65
1916.43
1898.73
1878.45
1855.47
1829.68
1800.96
1769.17
1734.19
1695.88
1654.07
1608.66
1559.51
1506.57
1449.78
1389.3
1325.57
1258.22
1181.09
810.106
70.7775
1.72143
0.633717
0.582753
0.613574
0.642023
0.679543
0.723289
0.767742
0.809718
0.847223
0.879098
0.904856
0.924276
0.937023
0.942576
0.940473
0.930262
1974.21
1976.58
1977.43
1976.14
1972.64
1967.01
1959.26
1949.35
1937.21
1922.76
1905.91
1886.56
1864.59
1839.89
1812.34
1781.81
1748.16
1711.26
1670.97
1627.14
1579.69
1528.53
1473.64
1415.25
1353.78
1287.6
1209.42
510.757
7.93577
0.897424
0.49748
0.519653
0.546582
0.575808
0.614705
0.657987
0.701445
0.742665
0.779973
0.812343
0.839276
0.860474
0.87556
0.884024
0.88543
0.879278
1978.6
1980.69
1981.54
1980.4
1977.17
1971.94
1964.71
1955.41
1943.98
1930.34
1914.38
1896.01
1875.11
1851.56
1825.25
1796.05
1763.82
1728.43
1689.74
1647.63
1601.99
1552.76
1499.94
1443.85
1384.66
1318.72
1155
230.208
2.5675
0.566665
0.426257
0.456877
0.480836
0.512162
0.551939
0.594787
0.637537
0.678222
0.715396
0.748145
0.775966
0.798505
0.81537
0.826084
0.830255
0.82741
1984.11
1985.93
1986.79
1985.8
1982.86
1978.05
1971.35
1962.69
1952
1939.2
1924.17
1906.82
1887.04
1864.71
1839.71
1811.91
1781.18
1747.39
1710.41
1670.11
1626.41
1579.23
1528.66
1475.08
1418.2
1352.14
933.175
71.0277
1.1116
0.363586
0.36028
0.389121
0.415007
0.449835
0.490674
0.53341
0.575784
0.616158
0.653282
0.686344
0.714847
0.738421
0.756682
0.769206
0.775653
0.775611
1990.75
1992.33
1993.2
1992.36
1989.73
1985.36
1979.21
1971.22
1961.3
1949.36
1935.31
1919.02
1900.4
1879.34
1855.71
1829.38
1800.23
1768.13
1732.95
1694.58
1652.92
1607.92
1559.73
1508.74
1453.8
1387.88
633.195
8.77796
0.499524
0.257791
0.297571
0.324142
0.352522
0.389669
0.431174
0.473919
0.516118
0.55634
0.593486
0.626829
0.655894
0.680312
0.69973
0.713785
0.722186
0.724599
1998.53
1999.86
2000.76
2000.09
1997.78
1993.87
1988.3
1981
1971.87
1960.84
1947.78
1932.61
1915.2
1895.45
1873.24
1848.45
1820.96
1790.63
1757.35
1721
1681.5
1638.81
1593.13
1544.72
1491.07
1389.88
333.349
2.12322
0.283897
0.202017
0.238665
0.262489
0.29296
0.331496
0.373466
0.416327
0.458498
0.498689
0.535925
0.569553
0.599122
0.624286
0.64473
0.660148
0.670288
0.674891
2007.42
2008.52
2009.46
2008.96
2006.99
2003.57
1998.6
1992.02
1983.73
1973.62
1961.6
1947.57
1931.41
1913.02
1892.29
1869.1
1843.33
1814.86
1783.57
1749.34
1712.1
1671.85
1628.85
1583.12
1530.42
1210.36
139.412
1.01303
0.156636
0.146344
0.174992
0.200469
0.23449
0.274712
0.3174
0.360591
0.402899
0.443181
0.480588
0.514534
0.544601
0.57047
0.591869
0.608539
0.620258
0.62683
2017.41
2018.27
2019.24
2018.94
2017.35
2014.44
2010.12
2004.29
1996.85
1987.7
1976.75
1963.89
1949.02
1932.03
1912.83
1891.29
1867.31
1840.77
1811.55
1779.54
1744.67
1706.97
1666.78
1623.73
1572.26
957.249
36.0783
0.219444
0.0329755
0.0790459
0.108997
0.139583
0.177501
0.219498
0.263063
0.306743
0.349331
0.389828
0.427498
0.461817
0.492403
0.51897
0.541283
0.559119
0.572283
0.580632
2028.42
2029.03
2030.07
2029.99
2028.81
2026.46
2022.82
2017.78
2011.23
2003.07
1993.22
1981.56
1968
1952.46
1934.83
1915
1892.87
1868.33
1841.25
1811.53
1779.11
1744.07
1706.71
1666.01
1616.07
644.74
2.83657
-0.0167291
-0.0333547
0.0214627
0.0506688
0.0833696
0.123126
0.166245
0.210588
0.254819
0.297802
0.338636
0.37667
0.41143
0.442572
0.469842
0.493039
0.511971
0.526463
0.536421
2040.4
2040.73
2041.86
2042.03
2041.32
2039.58
2036.67
2032.46
2026.84
2019.71
2010.96
2000.53
1988.32
1974.25
1958.23
1940.16
1919.94
1897.46
1872.6
1845.27
1815.4
1783.11
1748.58
1709.85
1615.77
364.215
1.06801
-0.0533591
-0.0621151
-0.0290376
-0.00380373
0.0297978
0.0706461
0.114727
0.15991
0.204814
0.248332
0.289632
0.328126
0.363392
0.395124
0.423103
0.447157
0.467125
0.482845
0.49427
2053.25
2053.21
2054.5
2055
2054.83
2053.78
2051.65
2048.32
2043.66
2037.57
2029.97
2020.78
2009.94
1997.37
1982.99
1966.72
1948.45
1928.09
1905.53
1880.68
1853.48
1824.09
1792.52
1755.76
1448.24
176.617
0.468567
-0.113648
-0.113324
-0.0885418
-0.0607649
-0.0237901
0.0191398
0.064681
0.110996
0.156774
0.200982
0.242869
0.28191
0.317734
0.350079
0.378761
0.403639
0.424582
0.441439
0.454204
2066.85
2066.27
2067.85
2068.79
2069.28
2069
2067.73
2065.32
2061.65
2056.63
2050.19
2042.26
2032.8
2021.75
2009.03
1994.58
1978.31
1960.13
1939.95
1917.67
1893.25
1866.89
1838.43
1803.98
1221.48
59.9449
-0.130754
-0.221939
-0.18265
-0.153125
-0.118475
-0.0767227
-0.0310421
0.0163309
0.0640092
0.110826
0.155851
0.19842
0.238073
0.274489
0.307454
0.336824
0.362485
0.384335
0.402232
0.416202
2080.94
2079.68
2081.65
2083.24
2084.57
2085.21
2084.89
2083.46
2080.81
2076.87
2071.59
2064.93
2056.85
2047.31
2036.26
2023.65
2009.41
1993.47
1975.72
1956.09
1934.55
1911.31
1885.94
1854.04
927.991
9.07274
-0.401085
-0.310398
-0.24663
-0.211014
-0.171944
-0.127055
-0.0790681
-0.0299205
0.0191886
0.0671352
0.113063
0.156376
0.196674
0.233692
0.267268
0.297293
0.323685
0.346365
0.3652
0.380241
2094.64
2093.3
2095.81
2098.28
2100.63
2102.33
2103.08
2102.7
2101.11
2098.26
2094.14
2088.72
2082.01
2073.97
2064.59
2053.82
2041.64
2027.96
2012.72
1995.81
1977.24
1957.15
1934.73
1905.66
623.774
0.411678
-0.411505
-0.342847
-0.293478
-0.260752
-0.221112
-0.174654
-0.124876
-0.073944
-0.0233293
0.0258294
0.0727264
0.116824
0.157778
0.195386
0.229538
0.260166
0.287218
0.31064
0.330305
0.346286
2106.76
2106.79
2110.06
2113.92
2117.5
2120.39
2122.27
2122.99
2122.49
2120.74
2117.77
2113.58
2108.19
2101.63
2093.89
2084.96
2074.83
2063.45
2050.76
2036.67
2021.19
2004.37
1984.92
1890.77
377.932
0.127802
-0.384395
-0.367355
-0.340924
-0.311012
-0.269758
-0.220962
-0.168812
-0.115778
-0.0634665
-0.0129868
0.0349301
0.0798237
0.121424
0.159594
0.194275
0.225436
0.253061
0.277122
0.297502
0.314295
2116.32
2118.83
2123.56
2129.81
2135.2
2139.51
2142.58
2144.39
2144.95
2144.27
2142.4
2139.39
2135.3
2130.16
2124.01
2116.89
2108.79
2099.71
2089.6
2078.41
2066.16
2052.9
2036.82
1730.23
199.006
-0.124619
-0.426756
-0.424796
-0.401836
-0.366442
-0.319608
-0.266466
-0.210926
-0.155298
-0.101056
-0.0491607
-0.000210632
0.0454479
0.0876439
0.126318
0.161462
0.193078
0.221181
0.245776
0.266759
0.28424
2089.57
2126.28
2135.73
2145.37
2153.17
2159.3
2163.79
2166.77
2168.38
2168.72
2167.9
2166
2163.11
2159.3
2154.66
2149.24
2143.08
2136.23
2128.67
2120.41
2111.53
2102.22
2090.25
1485.4
76.0198
-0.544301
-0.537796
-0.505374
-0.471174
-0.424231
-0.368945
-0.310082
-0.25051
-0.192012
-0.135752
-0.0824547
-0.0325362
0.0137991
0.0564937
0.0955705
0.131075
0.163048
0.191532
0.216558
0.238033
0.256087
1046.37
1613.53
2035.76
2158.12
2170.79
2179.21
2185.05
2189.23
2191.93
2193.3
2193.49
2192.64
2190.86
2188.28
2185.01
2181.16
2176.85
2172.16
2167.17
2161.92
2156.64
2151.65
2144.36
1135.52
14.9313
-0.829304
-0.642363
-0.582001
-0.534812
-0.477214
-0.414148
-0.349847
-0.286418
-0.225216
-0.167109
-0.112582
-0.0618648
-0.0150109
0.0280351
0.0673746
0.103106
0.135308
0.164059
0.189412
0.211276
0.229785
2.04856
233.583
769.62
1499.73
1981.4
2170.26
2205.1
2211.25
2215.25
2217.61
2218.73
2218.84
2218.08
2216.66
2214.69
2212.36
2209.82
2207.17
2204.56
2201.99
2199.82
2199.26
2197.66
760.72
-0.265866
-0.817712
-0.691339
-0.637434
-0.584818
-0.521139
-0.45277
-0.384238
-0.317666
-0.25427
-0.194711
-0.139279
-0.0880316
-0.0408861
0.00231548
0.0417439
0.0775445
0.109834
0.138721
0.164278
0.186416
0.205286
-0.808619
-0.525447
-0.78618
148.578
552.915
1107.33
1554.25
1847.21
2016.45
2108.11
2155.43
2177.1
2180.48
2173.39
2151.69
2116.74
2067.17
1997.55
1914.49
1818.07
1713.69
1688.95
1950.98
399.552
-0.556829
-0.780686
-0.739259
-0.691618
-0.629891
-0.558656
-0.485068
-0.412834
-0.343753
-0.278759
-0.218261
-0.162347
-0.110916
-0.0637608
-0.0206387
0.0186772
0.054372
0.086594
0.115476
0.141109
0.163399
0.18251
-0.80168
-0.79897
-0.819318
-0.863972
-1.06611
1.88114
131.903
314.405
503.144
666.128
787.682
856.94
871.118
842.914
777.077
684.654
577.915
469.952
367.762
280.289
203.674
184.437
396.522
93.5918
-1.22664
-0.901159
-0.818272
-0.752949
-0.673092
-0.590614
-0.510863
-0.435224
-0.364294
-0.29839
-0.237559
-0.181663
-0.130447
-0.0836041
-0.0408254
-0.00184278
0.0335584
0.06555
0.0942827
0.119855
0.142172
0.161405
-0.798393
-0.783058
-0.810562
-0.840909
-0.874548
-0.888089
-0.963092
-1.12881
-1.19893
-1.22461
-1.24007
-1.25241
-1.26492
-1.28103
-1.29731
-1.31492
-1.33306
-1.35112
-1.36835
-1.39045
-1.41353
-1.48012
-1.58022
-1.39731
-1.28306
-1.04827
-0.904199
-0.799287
-0.702435
-0.611796
-0.527927
-0.450382
-0.378794
-0.312916
-0.252483
-0.19717
-0.14661
-0.100427
-0.0582727
-0.019855
0.0150591
0.0466545
0.0750906
0.100469
0.122689
0.14193
-0.791134
-0.781543
-0.798541
-0.822864
-0.850464
-0.871896
-0.892984
-0.934485
-0.966345
-0.989016
-1.00852
-1.02792
-1.04895
-1.07252
-1.09902
-1.12877
-1.16168
-1.19771
-1.23736
-1.281
-1.32811
-1.3819
-1.42685
-1.40342
-1.24614
-1.05929
-0.920992
-0.809787
-0.71
-0.618498
-0.534627
-0.457661
-0.387024
-0.322287
-0.263053
-0.208916
-0.159464
-0.114294
-0.0730482
-0.0354261
-0.00119075
0.0298448
0.0578391
0.0828919
0.104897
0.124036
-0.782424
-0.779688
-0.788287
-0.805286
-0.829069
-0.854542
-0.881795
-0.914277
-0.94401
-0.968864
-0.990492
-1.01081
-1.03137
-1.05308
-1.07639
-1.10134
-1.12796
-1.15621
-1.18605
-1.21675
-1.24639
-1.2718
-1.2821
-1.24949
-1.14147
-1.01094
-0.896333
-0.794147
-0.699825
-0.61245
-0.531826
-0.457587
-0.389359
-0.326782
-0.269485
-0.217078
-0.169158
-0.125336
-0.0852654
-0.0486563
-0.0152807
0.0150385
0.0424513
0.0670517
0.0887275
0.107666
-0.771145
-0.77419
-0.779159
-0.790527
-0.808154
-0.829945
-0.855269
-0.883353
-0.910294
-0.934349
-0.955935
-0.976017
-0.995539
-1.01524
-1.03541
-1.05613
-1.07739
-1.09908
-1.12094
-1.14173
-1.15866
-1.16771
-1.16051
-1.12254
-1.04575
-0.95037
-0.855737
-0.764919
-0.678556
-0.597342
-0.521626
-0.451425
-0.386604
-0.326947
-0.272173
-0.221953
-0.175928
-0.133745
-0.0950841
-0.0596808
-0.0273288
0.00213012
0.0288323
0.0528639
0.0741078
0.0927524
-0.757286
-0.762912
-0.767642
-0.776387
-0.789763
-0.806998
-0.827375
-0.849849
-0.872235
-0.893285
-0.912809
-0.931203
-0.948996
-0.966537
-0.983949
-1.00126
-1.01842
-1.03524
-1.05119
-1.06493
-1.07372
-1.07372
-1.05935
-1.02328
-0.963376
-0.888306
-0.808569
-0.728508
-0.650517
-0.576098
-0.505997
-0.440504
-0.37968
-0.323443
-0.27161
-0.223921
-0.180075
-0.139762
-0.102703
-0.0686664
-0.037479
-0.00900662
0.0168714
0.0402332
0.0609568
0.0792291
-0.739576
-0.745657
-0.751516
-0.759654
-0.770816
-0.784887
-0.801384
-0.819428
-0.837759
-0.855472
-0.872319
-0.888442
-0.904034
-0.919153
-0.933769
-0.947865
-0.961351
-0.973932
-0.984898
-0.992842
-0.995463
-0.989705
-0.971933
-0.938506
-0.88852
-0.826447
-0.758312
-0.688
-0.618205
-0.550699
-0.486461
-0.425981
-0.369466
-0.316947
-0.268325
-0.223404
-0.181935
-0.14366
-0.108345
-0.0758025
-0.0458941
-0.0185122
0.00644833
0.0290578
0.0491896
0.0670252
-0.717338
-0.723861
-0.730896
-0.739205
-0.749319
-0.761421
-0.775203
-0.790017
-0.805045
-0.819741
-0.83395
-0.84768
-0.860868
-0.873395
-0.88518
-0.896199
-0.90631
-0.915096
-0.92176
-0.924974
-0.922875
-0.91324
-0.893736
-0.862434
-0.819037
-0.766068
-0.70721
-0.645524
-0.583422
-0.522638
-0.464245
-0.408851
-0.35677
-0.308116
-0.26285
-0.22083
-0.181857
-0.145724
-0.112249
-0.0812906
-0.0527467
-0.026534
-0.00256139
0.0192335
0.0387183
0.0560665
-0.691686
-0.698738
-0.706696
-0.71534
-0.724933
-0.735735
-0.747534
-0.759865
-0.772248
-0.784416
-0.796259
-0.807656
-0.818385
-0.828281
-0.837292
-0.845394
-0.852401
-0.857818
-0.86082
-0.860246
-0.854644
-0.842444
-0.822171
-0.792775
-0.754257
-0.708165
-0.656879
-0.602689
-0.54759
-0.493135
-0.440381
-0.389988
-0.342328
-0.297561
-0.255688
-0.21661
-0.180177
-0.146235
-0.114653
-0.0853355
-0.0582119
-0.0332207
-0.0102835
0.0106533
0.029451
0.0462726
-0.66384
-0.671285
-0.679923
-0.688893
-0.698182
-0.708026
-0.718286
-0.728678
-0.738987
-0.749083
-0.75883
-0.768
-0.776342
-0.783726
-0.790157
-0.795601
-0.799813
-0.802265
-0.802172
-0.798572
-0.790394
-0.776564
-0.756153
-0.728593
-0.693998
-0.653391
-0.608372
-0.560647
-0.511804
-0.463178
-0.415745
-0.370156
-0.326793
-0.285832
-0.247298
-0.211127
-0.177217
-0.145465
-0.115791
-0.0881372
-0.0624608
-0.0387183
-0.0168433
0.00320803
0.0212902
0.0375548
-0.634593
-0.642332
-0.651425
-0.660638
-0.669684
-0.678759
-0.687814
-0.696735
-0.70544
-0.713815
-0.721671
-0.728757
-0.734901
-0.740045
-0.744207
-0.747308
-0.749051
-0.748917
-0.746224
-0.740226
-0.730181
-0.715384
-0.695255
-0.669481
-0.638201
-0.602119
-0.562358
-0.520195
-0.476888
-0.433556
-0.391062
-0.35
-0.310725
-0.273404
-0.238079
-0.204719
-0.173267
-0.143668
-0.115883
-0.0898853
-0.0656567
-0.0431681
-0.0223651
-0.00321452
0.014132
0.0298158
-0.60464
-0.612557
-0.621931
-0.631257
-0.64004
-0.648474
-0.656604
-0.66442
-0.671851
-0.678739
-0.684881
-0.690099
-0.69433
-0.697578
-0.699824
-0.700905
-0.700494
-0.698136
-0.6933
-0.685459
-0.674131
-0.658867
-0.6393
-0.615247
-0.586831
-0.554559
-0.519249
-0.481878
-0.44345
-0.404886
-0.366914
-0.330043
-0.294577
-0.260669
-0.228371
-0.197684
-0.168589
-0.141073
-0.115128
-0.0907547
-0.0679522
-0.0467054
-0.0269718
-0.00872837
0.00786908
0.0229536
-0.574615
-0.582588
-0.59211
-0.601416
-0.609912
-0.617821
-0.625248
-0.632192
-0.638531
-0.64409
-0.648717
-0.652356
-0.655008
-0.656692
-0.657321
-0.65666
-0.654392
-0.65017
-0.643637
-0.634462
-0.622345
-0.606995
-0.588165
-0.565736
-0.539815
-0.510786
-0.479279
-0.446057
-0.411925
-0.377621
-0.343736
-0.31068
-0.278703
-0.247941
-0.218455
-0.190274
-0.163411
-0.137882
-0.113705
-0.0909027
-0.069488
-0.0494589
-0.0307833
-0.0134469
0.00239385
0.0168665
-0.545015
-0.552963
-0.562503
-0.571685
-0.579896
-0.587382
-0.594251
-0.600436
-0.605783
-0.610156
-0.613515
-0.615886
-0.617281
-0.617669
-0.616905
-0.614738
-0.610909
-0.605198
-0.597409
-0.587356
-0.574847
-0.559679
-0.541673
-0.520751
-0.497016
-0.470784
-0.442558
-0.412949
-0.382593
-0.352065
-0.321823
-0.292188
-0.26336
-0.23546
-0.208557
-0.182699
-0.157921
-0.134264
-0.111768
-0.0904682
-0.0703927
-0.0515493
-0.0339145
-0.017479
-0.00239598
0.0114588
-0.51618
-0.524055
-0.533484
-0.542467
-0.550401
-0.55752
-0.56388
-0.569354
-0.573805
-0.577186
-0.579557
-0.580959
-0.581361
-0.580661
-0.57869
-0.575245
-0.570163
-0.563341
-0.554701
-0.544145
-0.531539
-0.516727
-0.499576
-0.480048
-0.458251
-0.434462
-0.409096
-0.382641
-0.355589
-0.328376
-0.301346
-0.274743
-0.248727
-0.223404
-0.198849
-0.175119
-0.15227
-0.13036
-0.109444
-0.0895723
-0.0707819
-0.0530881
-0.0364719
-0.0209247
-0.00659278
0.00664597
-0.488391
-0.496128
-0.505347
-0.514077
-0.521712
-0.528455
-0.534294
-0.539106
-0.542808
-0.545441
-0.547092
-0.547765
-0.547359
-0.545725
-0.54272
-0.538231
-0.532199
-0.524616
-0.515471
-0.504706
-0.492214
-0.477871