/*--------------------------------*- C++ -*----------------------------------*\
  =========                 |
  \\      /  F ield         | OpenFOAM: The Open Source CFD Toolbox
   \\    /   O peration     | Website:  https://openfoam.org
    \\  /    A nd           | Version:  7
     \\/     M anipulation  |
\*---------------------------------------------------------------------------*/
FoamFile
{
    version     2.0;
    format      ascii;
    class       surfaceScalarField;
    location    "0.15";
    object      phi;
}
// * * * * * * * * * * * * * * * * * * * * * * * * * * * * * * * * * * * * * //

dimensions      [0 3 -1 0 0 0 0];

internalField   nonuniform List<scalar> 
17936
(
-2.22202e-07
2.22202e-07
1.00762e-06
-1.22982e-06
2.83614e-06
-1.82853e-06
4.77066e-06
-1.93452e-06
6.67367e-06
-1.90301e-06
8.52119e-06
-1.84752e-06
1.03172e-05
-1.79605e-06
1.20715e-05
-1.75431e-06
1.37947e-05
-1.72319e-06
1.54972e-05
-1.70245e-06
1.71885e-05
-1.69131e-06
1.88776e-05
-1.68912e-06
2.05731e-05
-1.69552e-06
2.22837e-05
-1.71053e-06
2.40182e-05
-1.73454e-06
2.57866e-05
-1.76836e-06
2.75997e-05
-1.81316e-06
2.94702e-05
-1.87048e-06
3.14124e-05
-1.94219e-06
3.34428e-05
-2.03045e-06
3.55804e-05
-2.13759e-06
3.78462e-05
-2.26576e-06
4.02624e-05
-2.41617e-06
4.28503e-05
-2.58795e-06
4.56267e-05
-2.77644e-06
4.85977e-05
-2.971e-06
5.17502e-05
-3.15245e-06
5.50406e-05
-3.29044e-06
5.83795e-05
-3.33886e-06
6.16194e-05
-3.23986e-06
6.4576e-05
-2.95666e-06
6.69709e-05
-2.39491e-06
6.81366e-05
-1.16564e-06
6.73074e-05
8.29215e-07
6.46939e-05
2.61345e-06
6.11753e-05
3.51859e-06
5.77428e-05
3.43254e-06
5.50832e-05
2.65958e-06
5.34269e-05
1.65627e-06
5.26882e-05
7.38705e-07
5.28171e-05
-1.28915e-07
5.4029e-05
-1.21191e-06
5.54925e-05
-1.46348e-06
4.94213e-05
6.07127e-06
3.23038e-05
1.71174e-05
3.23038e-05
5.90256e-07
-3.68054e-07
2.01186e-06
-2.65142e-06
3.70622e-06
-3.52289e-06
5.46415e-06
-3.69244e-06
7.21114e-06
-3.65e-06
8.92525e-06
-3.56163e-06
1.06049e-05
-3.47573e-06
1.2256e-05
-3.4054e-06
1.38866e-05
-3.3538e-06
1.55053e-05
-3.32115e-06
1.71207e-05
-3.30665e-06
1.8741e-05
-3.30948e-06
2.03748e-05
-3.32927e-06
2.20305e-05
-3.36624e-06
2.37172e-05
-3.42127e-06
2.54449e-05
-3.496e-06
2.72244e-05
-3.59272e-06
2.90684e-05
-3.7144e-06
3.09907e-05
-3.86458e-06
3.30074e-05
-4.04716e-06
3.51359e-05
-4.26607e-06
3.73946e-05
-4.52444e-06
3.98015e-05
-4.82308e-06
4.23718e-05
-5.15828e-06
4.51141e-05
-5.51872e-06
4.80247e-05
-5.88154e-06
5.10801e-05
-6.20793e-06
5.42285e-05
-6.43879e-06
5.73805e-05
-6.4909e-06
6.04029e-05
-6.26224e-06
6.3101e-05
-5.6548e-06
6.52649e-05
-4.55879e-06
6.69304e-05
-2.83117e-06
6.81341e-05
-3.74404e-07
6.84448e-05
2.30275e-06
6.74646e-05
4.49873e-06
6.5339e-05
5.55812e-06
6.26129e-05
5.38569e-06
6.00001e-05
4.26911e-06
5.8144e-05
2.59482e-06
5.72976e-05
7.17427e-07
5.74909e-05
-1.40523e-06
5.93041e-05
-3.27665e-06
6.04692e-05
4.90618e-06
4.53191e-05
3.22675e-05
7.7623e-05
1.13938e-06
-1.50744e-06
2.65658e-06
-4.16862e-06
4.25653e-06
-5.12283e-06
5.88174e-06
-5.31766e-06
7.50049e-06
-5.26875e-06
9.09925e-06
-5.16039e-06
1.06758e-05
-5.05232e-06
1.22339e-05
-4.96341e-06
1.37795e-05
-4.89943e-06
1.532e-05
-4.86162e-06
1.68629e-05
-4.84959e-06
1.84162e-05
-4.86274e-06
1.99878e-05
-4.9009e-06
2.15862e-05
-4.96463e-06
2.32203e-05
-5.05535e-06
2.48997e-05
-5.17547e-06
2.66353e-05
-5.3283e-06
2.84389e-05
-5.51802e-06
3.03238e-05
-5.74947e-06
3.23045e-05
-6.02782e-06
3.43963e-05
-6.35785e-06
3.66145e-05
-6.74264e-06
3.89728e-05
-7.1814e-06
4.14808e-05
-7.66628e-06
4.41402e-05
-8.17816e-06
4.694e-05
-8.68136e-06
4.98502e-05
-9.11804e-06
5.28144e-05
-9.403e-06
5.57443e-05
-9.42088e-06
5.85143e-05
-9.03223e-06
6.09525e-05
-8.09296e-06
6.28643e-05
-6.47063e-06
6.41187e-05
-4.08552e-06
6.47328e-05
-9.88572e-07
6.46678e-05
2.36779e-06
6.39253e-05
5.24123e-06
6.25715e-05
6.9119e-06
6.08803e-05
7.0769e-06
5.93292e-05
5.82027e-06
5.84031e-05
3.52088e-06
5.8202e-05
9.18569e-07
5.80233e-05
-1.22661e-06
5.6899e-05
-2.15232e-06
5.22883e-05
9.51687e-06
3.54873e-05
4.90684e-05
0.00011311
1.47023e-06
-2.97766e-06
3.08298e-06
-5.78137e-06
4.63933e-06
-6.67917e-06
6.17522e-06
-6.85355e-06
7.69746e-06
-6.79099e-06
9.20436e-06
-6.66729e-06
1.06962e-05
-6.54414e-06
1.21762e-05
-6.44345e-06
1.36498e-05
-6.373e-06
1.51233e-05
-6.33517e-06
1.66039e-05
-6.33018e-06
1.8099e-05
-6.35781e-06
1.96163e-05
-6.41822e-06
2.11641e-05
-6.51238e-06
2.2751e-05
-6.64224e-06
2.43864e-05
-6.81089e-06
2.60806e-05
-7.0225e-06
2.78448e-05
-7.28222e-06
2.96911e-05
-7.59583e-06
3.16326e-05
-7.96926e-06
3.36822e-05
-8.40747e-06
3.58523e-05
-8.91272e-06
3.81526e-05
-9.48171e-06
4.05879e-05
-1.01016e-05
4.31548e-05
-1.07451e-05
4.5837e-05
-1.13636e-05
4.86005e-05
-1.18815e-05
5.13879e-05
-1.21904e-05
5.4114e-05
-1.2147e-05
5.6662e-05
-1.15802e-05
5.88805e-05
-1.03115e-05
6.05977e-05
-8.18779e-06
6.16625e-05
-5.15036e-06
6.20215e-05
-1.34753e-06
6.17268e-05
2.66251e-06
6.09652e-05
6.00281e-06
5.99579e-05
7.91921e-06
5.89443e-05
8.09049e-06
5.8202e-05
6.56251e-06
5.7945e-05
3.77795e-06
5.80747e-05
7.88886e-07
5.74763e-05
-6.2823e-07
5.12846e-05
4.03939e-06
4.02558e-05
2.05456e-05
2.33526e-05
6.59716e-05
0.000136463
1.65225e-06
-4.62991e-06
3.34511e-06
-7.47423e-06
4.89075e-06
-8.22481e-06
6.37318e-06
-8.33599e-06
7.8275e-06
-8.24531e-06
9.26411e-06
-8.1039e-06
1.06877e-05
-7.9677e-06
1.21028e-05
-7.85858e-06
1.35151e-05
-7.78526e-06
1.49308e-05
-7.75086e-06
1.63567e-05
-7.75616e-06
1.78003e-05
-7.80134e-06
1.9269e-05
-7.8869e-06
2.07708e-05
-8.01417e-06
2.23141e-05
-8.18559e-06
2.3908e-05
-8.40482e-06
2.55622e-05
-8.6767e-06
2.72871e-05
-9.00705e-06
2.90935e-05
-9.40225e-06
3.09927e-05
-9.86849e-06
3.29956e-05
-1.04103e-05
3.51114e-05
-1.10285e-05
3.73464e-05
-1.17167e-05
3.97013e-05
-1.24566e-05
4.21686e-05
-1.32123e-05
4.47285e-05
-1.39235e-05
4.73451e-05
-1.44981e-05
4.99624e-05
-1.48077e-05
5.2501e-05
-1.46855e-05
5.48555e-05
-1.39347e-05
5.68947e-05
-1.23507e-05
5.84695e-05
-9.76264e-06
5.94347e-05
-6.11551e-06
5.97153e-05
-1.62812e-06
5.93863e-05
2.99149e-06
5.87152e-05
6.67391e-06
5.8017e-05
8.61743e-06
5.75239e-05
8.58356e-06
5.73599e-05
6.72648e-06
5.74695e-05
3.66838e-06
5.75325e-05
7.25911e-07
5.49196e-05
1.98468e-06
4.59761e-05
1.29828e-05
3.06456e-05
3.58762e-05
1.34347e-05
8.31825e-05
0.000149898
1.74476e-06
-6.37467e-06
3.49023e-06
-9.2197e-06
5.04028e-06
-9.77486e-06
6.49464e-06
-9.79035e-06
7.90445e-06
-9.65512e-06
9.28976e-06
-9.48921e-06
1.06601e-05
-9.33808e-06
1.20225e-05
-9.22093e-06
1.33834e-05
-9.14613e-06
1.47495e-05
-9.117e-06
1.61279e-05
-9.13458e-06
1.75259e-05
-9.1993e-06
1.89509e-05
-9.31193e-06
2.04108e-05
-9.47409e-06
2.19138e-05
-9.68858e-06
2.34685e-05
-9.95948e-06
2.50838e-05
-1.02921e-05
2.67694e-05
-1.06926e-05
2.85347e-05
-1.11676e-05
3.03893e-05
-1.17231e-05
3.23417e-05
-1.23627e-05
3.43985e-05
-1.30853e-05
3.65625e-05
-1.38808e-05
3.88312e-05
-1.47253e-05
4.11937e-05
-1.55749e-05
4.36282e-05
-1.63579e-05
4.60986e-05
-1.69685e-05
4.85521e-05
-1.72612e-05
5.09169e-05
-1.70504e-05
5.31016e-05
-1.61194e-05
5.49954e-05
-1.42445e-05
5.64729e-05
-1.12402e-05
5.74037e-05
-7.04632e-06
5.77082e-05
-1.93259e-06
5.74633e-05
3.23641e-06
5.69776e-05
7.15956e-06
5.66152e-05
8.97989e-06
5.6565e-05
8.63371e-06
5.67894e-05
6.5021e-06
5.70062e-05
3.45154e-06
5.59114e-05
1.82075e-06
4.97268e-05
8.16926e-06
3.75476e-05
2.5162e-05
2.12317e-05
5.21921e-05
5.92464e-06
9.84896e-05
0.000155822
1.78195e-06
-8.15662e-06
3.5556e-06
-1.09934e-05
5.11568e-06
-1.13349e-05
6.55873e-06
-1.12334e-05
7.94193e-06
-1.10383e-05
9.29178e-06
-1.08391e-05
1.06223e-05
-1.06686e-05
1.19429e-05
-1.05415e-05
1.32616e-05
-1.04649e-05
1.45861e-05
-1.04414e-05
1.59236e-05
-1.04721e-05
1.72817e-05
-1.05574e-05
1.8668e-05
-1.06982e-05
2.009e-05
-1.08962e-05
2.15559e-05
-1.11544e-05
2.30736e-05
-1.14772e-05
2.46516e-05
-1.18701e-05
2.62984e-05
-1.23394e-05
2.80223e-05
-1.28914e-05
2.98308e-05
-1.35316e-05
3.17303e-05
-1.42623e-05
3.37248e-05
-1.50797e-05
3.58141e-05
-1.59701e-05
3.79928e-05
-1.6904e-05
4.02475e-05
-1.78296e-05
4.25553e-05
-1.86657e-05
4.48812e-05
-1.92945e-05
4.7177e-05
-1.95569e-05
4.93799e-05
-1.92533e-05
5.14133e-05
-1.81528e-05
5.31877e-05
-1.60189e-05
5.46024e-05
-1.26548e-05
5.55471e-05
-7.99106e-06
5.59454e-05
-2.3309e-06
5.58671e-05
3.31476e-06
5.56382e-05
7.38848e-06
5.56277e-05
8.99039e-06
5.5927e-05
8.33439e-06
5.6338e-05
6.09113e-06
5.60246e-05
3.76486e-06
5.17834e-05
6.06205e-06
4.17908e-05
1.81619e-05
2.80157e-05
3.89371e-05
1.25811e-05
6.76269e-05
8.15559e-07
0.000110255
0.000156638
1.78385e-06
-9.94047e-06
3.56907e-06
-1.27786e-05
5.14103e-06
-1.29069e-05
6.58348e-06
-1.26759e-05
7.9532e-06
-1.2408e-05
9.28028e-06
-1.21661e-05
1.05822e-05
-1.19705e-05
1.18709e-05
-1.18303e-05
1.31561e-05
-1.17501e-05
1.44463e-05
-1.17316e-05
1.57494e-05
-1.17752e-05
1.70733e-05
-1.18813e-05
1.84255e-05
-1.20504e-05
1.98138e-05
-1.22845e-05
2.12459e-05
-1.25865e-05
2.27294e-05
-1.29608e-05
2.42721e-05
-1.34128e-05
2.58813e-05
-1.39486e-05
2.7564e-05
-1.45741e-05
2.93261e-05
-1.52937e-05
3.11718e-05
-1.61079e-05
3.31023e-05
-1.70103e-05
3.51151e-05
-1.79829e-05
3.72021e-05
-1.8991e-05
3.93483e-05
-1.99758e-05
4.15302e-05
-2.08476e-05
4.37147e-05
-2.1479e-05
4.58589e-05
-2.1701e-05
4.79095e-05
-2.1304e-05
4.9805e-05
-2.00482e-05
5.14766e-05
-1.76905e-05
5.28481e-05
-1.40264e-05
5.3834e-05
-8.97688e-06
5.4373e-05
-2.86996e-06
5.45303e-05
3.15749e-06
5.46023e-05
7.31647e-06
5.49124e-05
8.68028e-06
5.54241e-05
7.82273e-06
5.551e-05
6.00522e-06
5.30086e-05
6.26628e-06
4.50163e-05
1.40542e-05
3.2919e-05
3.02593e-05
1.94432e-05
5.24129e-05
6.25082e-06
8.08192e-05
-2.31335e-06
0.000118819
0.000154324
1.76411e-06
-1.17046e-05
3.55177e-06
-1.45662e-05
5.13624e-06
-1.44914e-05
6.58474e-06
-1.41244e-05
7.95032e-06
-1.37736e-05
9.26451e-06
-1.34803e-05
1.05473e-05
-1.32532e-05
1.18128e-05
-1.30958e-05
1.30722e-05
-1.30095e-05
1.4335e-05
-1.29944e-05
1.56098e-05
-1.30501e-05
1.69049e-05
-1.31763e-05
1.8228e-05
-1.33735e-05
1.95867e-05
-1.36432e-05
2.09886e-05
-1.39884e-05
2.24409e-05
-1.4413e-05
2.39505e-05
-1.49224e-05
2.5524e-05
-1.5522e-05
2.71668e-05
-1.6217e-05
2.88832e-05
-1.70101e-05
3.06752e-05
-1.79e-05
3.25419e-05
-1.8877e-05
3.44783e-05
-1.99193e-05
3.64742e-05
-2.09869e-05
3.85132e-05
-2.20147e-05
4.05719e-05
-2.29062e-05
4.26194e-05
-2.35266e-05
4.46181e-05
-2.36997e-05
4.65243e-05
-2.32102e-05
4.82901e-05
-2.18141e-05
4.98658e-05
-1.92662e-05
5.11969e-05
-1.53575e-05
5.22241e-05
-1.00041e-05
5.29276e-05
-3.57346e-06
5.33715e-05
2.7136e-06
5.37345e-05
6.95345e-06
5.4279e-05
8.13578e-06
5.45905e-05
7.51117e-06
5.30676e-05
7.52816e-06
4.72396e-05
1.20942e-05
3.68609e-05
2.4433e-05
2.48215e-05
4.22986e-05
1.3005e-05
6.42293e-05
2.47809e-06
9.1346e-05
-3.09197e-06
0.000124389
0.000151232
1.73349e-06
-1.34381e-05
3.51995e-06
-1.63527e-05
5.11715e-06
-1.60886e-05
6.57565e-06
-1.55829e-05
7.94348e-06
-1.51415e-05
9.25231e-06
-1.47892e-05
1.05237e-05
-1.45246e-05
1.17734e-05
-1.43455e-05
1.30139e-05
-1.425e-05
1.42558e-05
-1.42362e-05
1.55082e-05
-1.43025e-05
1.67797e-05
-1.44479e-05
1.80784e-05
-1.46722e-05
1.94118e-05
-1.49766e-05
2.07873e-05
-1.53638e-05
2.22115e-05
-1.58373e-05
2.36909e-05
-1.64018e-05
2.52309e-05
-1.7062e-05
2.68357e-05
-1.78218e-05
2.8508e-05
-1.86824e-05
3.02479e-05
-1.96398e-05
3.20523e-05
-2.06814e-05
3.39141e-05
-2.17811e-05
3.58213e-05
-2.28941e-05
3.77565e-05
-2.39499e-05
3.96965e-05
-2.48463e-05
4.16129e-05
-2.5443e-05
4.34727e-05
-2.55596e-05
4.52407e-05
-2.49782e-05
4.68812e-05
-2.34545e-05
4.83599e-05
-2.07449e-05
4.96374e-05
-1.6635e-05
5.06775e-05
-1.10441e-05
5.15265e-05
-4.42247e-06
5.22737e-05
1.96642e-06
5.28135e-05
6.41359e-06
5.32584e-05
7.69092e-06
5.22625e-05
8.50707e-06
4.79796e-05
1.18111e-05
3.96068e-05
2.04671e-05
2.91613e-05
3.48786e-05
1.86743e-05
5.27856e-05
8.93595e-06
7.39678e-05
9.13582e-07
9.93683e-05
-2.46809e-06
0.000127771
0.000148764
1.70096e-06
-1.5139e-05
3.48582e-06
-1.81375e-05
5.09564e-06
-1.76984e-05
6.56624e-06
-1.70535e-05
7.94062e-06
-1.65158e-05
9.24976e-06
-1.60983e-05
1.0516e-05
-1.57909e-05
1.17563e-05
-1.55858e-05
1.29842e-05
-1.54779e-05
1.4211e-05
-1.5463e-05
1.54464e-05
-1.5538e-05
1.66995e-05
-1.57009e-05
1.79784e-05
-1.59511e-05
1.92906e-05
-1.62889e-05
2.06434e-05
-1.67165e-05
2.2043e-05
-1.72369e-05
2.34952e-05
-1.78539e-05
2.50044e-05
-1.85712e-05
2.65738e-05
-1.93912e-05
2.82044e-05
-2.0313e-05
2.98945e-05
-2.133e-05
3.16393e-05
-2.24262e-05
3.34298e-05
-2.35716e-05
3.52524e-05
-2.47167e-05
3.7089e-05
-2.57865e-05
3.89167e-05
-2.66739e-05
4.0709e-05
-2.72353e-05
4.24373e-05
-2.72879e-05
4.40731e-05
-2.6614e-05
4.55905e-05
-2.49719e-05
4.69664e-05
-2.21208e-05
4.81694e-05
-1.7838e-05
4.91733e-05
-1.2048e-05
5.00763e-05
-5.32551e-06
5.10169e-05
1.02588e-06
5.12459e-05
6.18456e-06
5.06716e-05
8.26518e-06
4.76146e-05
1.1564e-05
4.12075e-05
1.82181e-05
3.24661e-05
2.92086e-05
2.33504e-05
4.39942e-05
1.46882e-05
6.14478e-05
6.93628e-06
8.17198e-05
1.00459e-06
0.0001053
-1.14561e-06
0.000129921
0.000147619
1.67347e-06
-1.68125e-05
3.45779e-06
-1.99219e-05
5.0798e-06
-1.93204e-05
6.56342e-06
-1.85371e-05
7.94719e-06
-1.78996e-05
9.26091e-06
-1.7412e-05
1.05272e-05
-1.70571e-05
1.17635e-05
-1.68222e-05
1.29842e-05
-1.66986e-05
1.42012e-05
-1.66799e-05
1.54248e-05
-1.67616e-05
1.66641e-05
-1.69403e-05
1.79276e-05
-1.72145e-05
1.92228e-05
-1.75841e-05
2.05567e-05
-1.80503e-05
2.19351e-05
-1.86154e-05
2.33632e-05
-1.9282e-05
2.48447e-05
-2.00527e-05
2.63815e-05
-2.0928e-05
2.79733e-05
-2.19048e-05
2.96169e-05
-2.29736e-05
3.13059e-05
-2.41151e-05
3.30296e-05
-2.52953e-05
3.47732e-05
-2.64604e-05
3.65179e-05
-2.75312e-05
3.82411e-05
-2.83972e-05
3.9918e-05
-2.89121e-05
4.15232e-05
-2.88932e-05
4.30335e-05
-2.81243e-05
4.44299e-05
-2.63683e-05
4.56966e-05
-2.33875e-05
4.68074e-05
-1.89488e-05
4.77418e-05
-1.29824e-05
4.86078e-05
-6.19149e-06
4.94377e-05
1.95959e-07
4.94177e-05
6.20458e-06
4.75249e-05
1.0158e-05
4.26709e-05
1.64179e-05
3.54159e-05
2.54732e-05
2.7361e-05
3.72635e-05
1.96269e-05
5.17283e-05
1.25961e-05
6.84787e-05
6.57289e-06
8.7743e-05
2.23608e-06
0.000109637
5.53847e-07
0.000131604
0.000148173
1.65529e-06
-1.84678e-05
3.4406e-06
-2.17072e-05
5.07413e-06
-2.09539e-05
6.57102e-06
-2.0034e-05
7.96603e-06
-1.92946e-05
9.28758e-06
-1.87336e-05
1.0558e-05
-1.83275e-05
1.1795e-05
-1.80593e-05
1.30134e-05
-1.7917e-05
1.42254e-05
-1.7892e-05
1.54417e-05
-1.79779e-05
1.66718e-05
-1.81704e-05
1.79241e-05
-1.84668e-05
1.92061e-05
-1.88662e-05
2.05246e-05
-1.93688e-05
2.18853e-05
-1.9976e-05
2.32925e-05
-2.06893e-05
2.47493e-05
-2.15095e-05
2.62566e-05
-2.24353e-05
2.7813e-05
-2.34611e-05
2.94139e-05
-2.45746e-05
3.10514e-05
-2.57527e-05
3.27138e-05
-2.69576e-05
3.43851e-05
-2.81317e-05
3.60459e-05
-2.9192e-05
3.76739e-05
-3.00252e-05
3.92455e-05
-3.04836e-05
4.07376e-05
-3.03853e-05
4.21306e-05
-2.95173e-05
4.34101e-05
-2.76478e-05
4.45638e-05
-2.45412e-05
4.55754e-05
-1.99604e-05
4.64494e-05
-1.38565e-05
4.7308e-05
-7.05006e-06
4.80294e-05
-5.25458e-07
4.76601e-05
6.57389e-06
4.4426e-05
1.33921e-05
3.85098e-05
2.23341e-05
3.13213e-05
3.26616e-05
2.41331e-05
4.44517e-05
1.76218e-05
5.82395e-05
1.19866e-05
7.41138e-05
7.42087e-06
9.23087e-05
4.25736e-06
0.0001128
2.68696e-06
0.000133174
0.00015086
1.64798e-06
-2.01158e-05
3.43566e-06
-2.34949e-05
5.07995e-06
-2.25982e-05
6.59006e-06
-2.15441e-05
7.9976e-06
-2.07022e-05
9.32951e-06
-2.00655e-05
1.06075e-05
-1.96054e-05
1.18492e-05
-1.9301e-05
1.30694e-05
-1.91372e-05
1.42808e-05
-1.91033e-05
1.54941e-05
-1.91912e-05
1.67189e-05
-1.93952e-05
1.79639e-05
-1.97117e-05
1.92364e-05
-2.01387e-05
2.0543e-05
-2.06754e-05
2.1889e-05
-2.13221e-05
2.32785e-05
-2.20788e-05
2.47137e-05
-2.29446e-05
2.61947e-05
-2.39163e-05
2.77191e-05
-2.49855e-05
2.92813e-05
-2.61368e-05
3.08724e-05
-2.73437e-05
3.24795e-05
-2.85647e-05
3.4086e-05
-2.97382e-05
3.5672e-05
-3.0778e-05
3.72153e-05
-3.15685e-05
3.8693e-05
-3.19613e-05
4.00837e-05
-3.1776e-05
4.13698e-05
-3.08035e-05
4.25394e-05
-2.88173e-05
4.35805e-05
-2.55823e-05
4.44944e-05
-2.08743e-05
4.5346e-05
-1.47081e-05
4.63086e-05
-8.01269e-06
4.70291e-05
-1.24589e-06
4.58003e-05
7.80265e-06
4.15335e-05
1.76589e-05
3.5305e-05
2.85625e-05
2.85998e-05
3.93667e-05
2.23052e-05
5.07463e-05
1.68746e-05
6.36701e-05
1.24508e-05
7.85375e-05
9.1261e-06
9.56334e-05
6.8971e-06
0.000115029
5.3043e-06
0.000134767
0.000156164
1.65132e-06
-2.17671e-05
3.44129e-06
-2.52848e-05
5.09561e-06
-2.42525e-05
6.61886e-06
-2.30673e-05
8.03996e-06
-2.21232e-05
9.3843e-06
-2.14098e-05
1.06727e-05
-2.08939e-05
1.19226e-05
-2.05509e-05
1.31485e-05
-2.03631e-05
1.4363e-05
-2.03178e-05
1.55772e-05
-2.04053e-05
1.68006e-05
-2.06186e-05
1.80417e-05
-2.09529e-05
1.93081e-05
-2.14051e-05
2.0606e-05
-2.19733e-05
2.19405e-05
-2.26566e-05
2.33151e-05
-2.34534e-05
2.47316e-05
-2.43612e-05
2.61895e-05
-2.53741e-05
2.76855e-05
-2.64815e-05
2.92133e-05
-2.76647e-05
3.07632e-05
-2.88936e-05
3.23215e-05
-3.0123e-05
3.38713e-05
-3.1288e-05
3.53923e-05
-3.22991e-05
3.68625e-05
-3.30386e-05
3.82592e-05
-3.33581e-05
3.95619e-05
-3.30787e-05
4.07543e-05
-3.19959e-05
4.18247e-05
-2.98877e-05
4.27594e-05
-2.6517e-05
4.35831e-05
-2.1698e-05
4.44636e-05
-1.55886e-05
4.55988e-05
-9.14787e-06
4.58462e-05
-1.49328e-06
4.37548e-05
9.89403e-06
3.89263e-05
2.24874e-05
3.29148e-05
3.45741e-05
2.68851e-05
4.53964e-05
2.14542e-05
5.61772e-05
1.69912e-05
6.81331e-05
1.36409e-05
8.18879e-05
1.14253e-05
9.7849e-05
1.016e-05
0.000116295
8.93417e-06
0.000135992
0.000165098
1.65947e-06
-2.34266e-05
3.45239e-06
-2.70777e-05
5.116e-06
-2.59162e-05
6.652e-06
-2.46033e-05
8.08707e-06
-2.35583e-05
9.44522e-06
-2.2768e-05
1.07463e-05
-2.21949e-05
1.2007e-05
-2.18115e-05
1.32416e-05
-2.15978e-05
1.44626e-05
-2.15388e-05
1.56809e-05
-2.16236e-05
1.6906e-05
-2.18438e-05
1.81465e-05
-2.21934e-05
1.94097e-05
-2.26682e-05
2.07016e-05
-2.32653e-05
2.20272e-05
-2.39821e-05
2.33895e-05
-2.48158e-05
2.47899e-05
-2.57616e-05
2.62275e-05
-2.68116e-05
2.76983e-05
-2.79524e-05
2.91957e-05
-2.91621e-05
3.07094e-05
-3.04072e-05
3.22254e-05
-3.16391e-05
3.37267e-05
-3.27892e-05
3.5193e-05
-3.37654e-05
3.66021e-05
-3.44478e-05
3.79318e-05
-3.46878e-05
3.91617e-05
-3.43085e-05
4.02759e-05
-3.31101e-05
4.126e-05
-3.08718e-05
4.20994e-05
-2.73564e-05
4.2861e-05
-2.24595e-05
4.38215e-05
-1.65491e-05
4.50352e-05
-1.03616e-05
4.45526e-05
-1.01068e-06
4.16652e-05
1.27814e-05
3.6738e-05
2.74147e-05
3.12251e-05
4.0087e-05
2.59069e-05
5.07146e-05
2.12693e-05
6.08148e-05
1.76638e-05
7.17386e-05
1.52716e-05
8.42801e-05
1.41178e-05
9.90028e-05
1.40394e-05
0.000116373
1.28632e-05
0.000137169
0.000177961
-3.40225e-07
3.40225e-07
3.09272e-07
-6.49295e-07
1.47223e-06
-1.16321e-06
2.81953e-06
-1.3472e-06
4.11273e-06
-1.29326e-06
5.2339e-06
-1.12115e-06
6.14254e-06
-9.08694e-07
6.83307e-06
-6.90522e-07
7.32536e-06
-4.92303e-07
7.64568e-06
-3.20355e-07
7.82254e-06
-1.76854e-07
7.88107e-06
-5.85088e-08
7.84147e-06
3.95359e-08
7.72562e-06
1.15852e-07
7.5527e-06
1.7292e-07
7.33728e-06
2.15376e-07
7.08984e-06
2.47432e-07
6.81718e-06
2.72639e-07
6.5245e-06
2.92672e-07
6.2162e-06
3.08288e-07
5.89557e-06
3.20615e-07
5.56514e-06
3.30435e-07
5.22674e-06
3.38384e-07
4.88169e-06
3.45044e-07
4.53082e-06
3.5089e-07
4.17421e-06
3.56601e-07
3.81184e-06
3.62397e-07
3.44334e-06
3.68498e-07
3.06836e-06
3.75016e-07
2.68649e-06
3.81916e-07
2.29728e-06
3.89208e-07
1.90088e-06
3.96439e-07
1.49813e-06
4.02748e-07
1.0919e-06
4.06268e-07
6.90219e-07
4.01685e-07
3.15692e-07
3.7449e-07
4.2412e-08
2.73294e-07
4.24359e-08
-2.42618e-08
3.6422e-07
6.66636e-07
-1.33988e-06
1.80363e-06
-2.30046e-06
3.09593e-06
-2.63941e-06
4.33811e-06
-2.53554e-06
5.41646e-06
-2.19947e-06
6.28736e-06
-1.77967e-06
6.94862e-06
-1.3518e-06
7.41909e-06
-9.62774e-07
7.7246e-06
-6.25872e-07
7.89244e-06
-3.44756e-07
7.94894e-06
-1.14979e-07
7.91632e-06
7.20991e-08
7.81112e-06
2.21012e-07
7.64725e-06
3.36782e-07
7.43736e-06
4.25219e-07
7.192e-06
4.92776e-07
6.9192e-06
5.45422e-07
6.62504e-06
5.86808e-07
6.31423e-06
6.1909e-07
5.99035e-06
6.44461e-07
5.65621e-06
6.64585e-07
5.31382e-06
6.80769e-07
4.96465e-06
6.94214e-07
4.60969e-06
7.05891e-07
4.24942e-06
7.16859e-07
3.88418e-06
7.27693e-07
3.51394e-06
7.38785e-07
3.13861e-06
7.50378e-07
2.7581e-06
7.62494e-07
2.37228e-06
7.75025e-07
1.98152e-06
7.87252e-07
1.58683e-06
7.97443e-07
1.19124e-06
8.01852e-07
8.02321e-07
7.9063e-07
4.37677e-07
7.39101e-07
1.39411e-07
5.71501e-07
1.81878e-07
1.58504e-07
2.05469e-07
9.02642e-07
-2.08374e-06
2.02097e-06
-3.41899e-06
3.2725e-06
-3.89087e-06
4.46069e-06
-3.72382e-06
5.47971e-06
-3.21846e-06
6.29281e-06
-2.59282e-06
6.90354e-06
-1.96255e-06
7.3331e-06
-1.39233e-06
7.60776e-06
-9.00529e-07
7.75369e-06
-4.90744e-07
7.79492e-06
-1.56186e-07
7.75197e-06
1.1501e-07
7.6413e-06
3.31645e-07
7.47619e-06
5.01897e-07
7.2678e-06
6.33582e-07
7.02556e-06
7.35007e-07
6.75706e-06
8.13899e-07
6.46826e-06
8.75587e-07
6.16372e-06
9.23633e-07
5.84689e-06
9.6126e-07
5.52048e-06
9.91e-07
5.18643e-06
1.01482e-06
4.8462e-06
1.03445e-06
4.50083e-06
1.05129e-06
4.15096e-06
1.06672e-06
3.79712e-06
1.08158e-06
3.43949e-06
1.09644e-06
3.07823e-06
1.11165e-06
2.71351e-06
1.12727e-06
2.34547e-06
1.14306e-06
1.97474e-06
1.15803e-06
1.60252e-06
1.16967e-06
1.23177e-06
1.17258e-06
8.6886e-07
1.15357e-06
5.2617e-07
1.08179e-06
2.24093e-07
8.73527e-07
4.06007e-07
2.3604e-07
-3.079e-08
1.00956e-06
-2.857e-06
2.15367e-06
-4.56327e-06
3.40506e-06
-5.1422e-06
4.56273e-06
-4.88157e-06
5.53121e-06
-4.18692e-06
6.28703e-06
-3.34868e-06
6.84334e-06
-2.51888e-06
7.22628e-06
-1.77526e-06
7.46396e-06
-1.13821e-06
7.58228e-06
-6.09102e-07
7.60377e-06
-1.77674e-07
7.54752e-06
1.71247e-07
7.42904e-06
4.50094e-07
7.26077e-06
6.70179e-07
7.05276e-06
8.41568e-07
6.81349e-06
9.74271e-07
6.54992e-06
1.07746e-06
6.2676e-06
1.15789e-06
5.9708e-06
1.22044e-06
5.66276e-06
1.26928e-06
5.34603e-06
1.30773e-06
5.02247e-06
1.33838e-06
4.69348e-06
1.36342e-06
4.36012e-06
1.38467e-06
4.02309e-06
1.40373e-06
3.68302e-06
1.42167e-06
3.34026e-06
1.43922e-06
2.99509e-06
1.45682e-06
2.64788e-06
1.47453e-06
2.29893e-06
1.492e-06
1.94902e-06
1.50797e-06
1.59941e-06
1.51929e-06
1.25263e-06
1.51934e-06
9.13354e-07
1.49287e-06
5.88633e-07
1.40652e-06
2.83208e-07
1.1789e-06
6.89257e-07
1.98737e-07
-2.29721e-07
1.00219e-06
-3.66023e-06
2.22297e-06
-5.78421e-06
3.51824e-06
-6.43741e-06
4.67108e-06
-6.03447e-06
5.60057e-06
-5.11641e-06
6.30246e-06
-4.05058e-06
6.80353e-06
-3.01997e-06
7.13707e-06
-2.10881e-06
7.33424e-06
-1.33537e-06
7.42124e-06
-6.96139e-07
7.41973e-06
-1.7616e-07
7.34751e-06
2.43461e-07
7.21894e-06
5.78633e-07
7.04549e-06
8.43641e-07
6.83624e-06
1.05081e-06
6.59876e-06
1.21175e-06
6.33932e-06
1.33689e-06
6.06295e-06
1.43424e-06
5.77359e-06
1.50981e-06
5.4742e-06
1.56866e-06
5.16715e-06
1.61478e-06
4.85418e-06
1.65135e-06
4.53661e-06
1.68099e-06
4.21547e-06
1.70583e-06
3.89147e-06
1.72771e-06
3.56528e-06
1.74787e-06
3.23733e-06
1.76719e-06
2.90798e-06
1.78616e-06
2.57769e-06
1.80486e-06
2.24685e-06
1.82283e-06
1.91626e-06
1.83857e-06
1.58706e-06
1.84851e-06
1.26113e-06
1.84525e-06
9.41291e-07
1.81273e-06
6.29884e-07
1.71795e-06
3.21097e-07
1.48764e-06
1.0104e-06
6.63542e-08
-2.96251e-07
9.04063e-07
-4.49773e-06
2.2541e-06
-7.13438e-06
3.63423e-06
-7.8175e-06
4.8038e-06
-7.20409e-06
5.70305e-06
-6.01565e-06
6.35312e-06
-4.70067e-06
6.79804e-06
-3.46492e-06
7.08001e-06
-2.39079e-06
7.2339e-06
-1.48926e-06
7.28671e-06
-7.48975e-07
7.25947e-06
-1.4892e-07
7.16884e-06
3.34082e-07
7.02801e-06
7.19455e-07
6.84738e-06
1.02429e-06
6.63508e-06
1.26309e-06
6.39784e-06
1.44898e-06
6.14122e-06
1.59351e-06
5.86968e-06
1.70576e-06
5.58678e-06
1.79273e-06
5.29519e-06
1.86024e-06
4.99705e-06
1.91291e-06
4.69397e-06
1.95442e-06
4.38715e-06
1.98779e-06
4.07756e-06
2.01544e-06
3.76589e-06
2.03935e-06
3.45279e-06
2.06098e-06
3.13871e-06
2.08128e-06
2.82403e-06
2.10083e-06
2.50923e-06
2.11969e-06
2.1947e-06
2.13733e-06
1.88117e-06
2.15211e-06
1.56951e-06
2.1602e-06
1.26086e-06
2.15388e-06
9.56299e-07
2.11732e-06
6.54519e-07
2.01977e-06
3.43487e-07
1.79862e-06
1.35394e-06
-1.5981e-07
-1.36602e-07
7.47253e-07
-5.40461e-06
2.28061e-06
-8.66787e-06
3.77921e-06
-9.31605e-06
4.97893e-06
-8.40386e-06
5.8509e-06
-6.88762e-06
6.44815e-06
-5.29793e-06
6.83467e-06
-3.85146e-06
7.0625e-06
-2.61863e-06
7.17052e-06
-1.59727e-06
7.18657e-06
-7.65046e-07
7.13115e-06
-9.35053e-08
7.01986e-06
4.45381e-07
6.86465e-06
8.74654e-07
6.67486e-06
1.21409e-06
6.45768e-06
1.48026e-06
6.21899e-06
1.68767e-06
5.96363e-06
1.84887e-06
5.69552e-06
1.97386e-06
5.41778e-06
2.07049e-06
5.13277e-06
2.14524e-06
4.8424e-06
2.20327e-06
4.5481e-06
2.24872e-06
4.25093e-06
2.28494e-06
3.9518e-06
2.31458e-06
3.6513e-06
2.33982e-06
3.35005e-06
2.36223e-06
3.04846e-06
2.38288e-06
2.74688e-06
2.40239e-06
2.44575e-06
2.42084e-06
2.14541e-06
2.43766e-06
1.84639e-06
2.45114e-06
1.54926e-06
2.45736e-06
1.25442e-06
2.44871e-06
9.61466e-07
2.41029e-06
6.66579e-07
2.3147e-06
3.54714e-07
2.11044e-06
1.70871e-06
-4.71745e-07
3.34998e-07
5.80308e-07
-6.4565e-06
2.3475e-06
-1.04352e-05
3.98497e-06
-1.09535e-05
5.21604e-06
-9.63497e-06
6.05574e-06
-7.72733e-06
6.59488e-06
-5.83707e-06
6.91873e-06
-4.17533e-06
7.08908e-06
-2.789e-06
7.14841e-06
-1.65659e-06
7.1252e-06
-7.41847e-07
7.03931e-06
-7.61364e-09
6.9052e-06
5.79499e-07
6.7336e-06
1.04625e-06
6.53273e-06
1.41498e-06
6.30882e-06
1.70415e-06
6.06693e-06
1.92957e-06
5.8112e-06
2.10462e-06
5.54496e-06
2.24009e-06
5.27091e-06
2.34456e-06
4.99107e-06
2.42506e-06
4.7071e-06
2.48724e-06
4.42023e-06
2.53559e-06
4.13139e-06
2.57376e-06
3.84135e-06
2.60463e-06
3.55063e-06
2.63051e-06
3.25972e-06
2.65312e-06
2.96902e-06
2.67359e-06
2.67877e-06
2.69262e-06
2.38932e-06
2.7103e-06
2.1009e-06
2.72607e-06
1.81381e-06
2.73822e-06
1.52829e-06
2.74292e-06
1.24405e-06
2.73294e-06
9.59563e-07
2.69479e-06
6.69509e-07
2.60481e-06
3.58038e-07
2.42187e-06
2.0668e-06
-7.83886e-07
1.11875e-06
4.77869e-07
-7.7181e-06
2.51418e-06
-1.24716e-05
4.28933e-06
-1.27286e-05
5.5361e-06
-1.08818e-05
6.32874e-06
-8.51999e-06
6.79956e-06
-6.30789e-06
7.05419e-06
-4.42998e-06
7.16273e-06
-2.89754e-06
7.1702e-06
-1.66407e-06
7.10518e-06
-6.76836e-07
6.98658e-06
1.10987e-07
6.8276e-06
7.38487e-07
6.63766e-06
1.23617e-06
6.42384e-06
1.62882e-06
6.1914e-06
1.93659e-06
5.94455e-06
2.17641e-06
5.68675e-06
2.36243e-06
5.42077e-06
2.50607e-06
5.14883e-06
2.61651e-06
4.87264e-06
2.70123e-06
4.59358e-06
2.7663e-06
4.31267e-06
2.8165e-06
4.03067e-06
2.85574e-06
3.74822e-06
2.88708e-06
3.46571e-06
2.91299e-06
3.18354e-06
2.93527e-06
2.90199e-06
2.95516e-06
2.62119e-06
2.97339e-06
2.34137e-06
2.99012e-06
2.0626e-06
3.00482e-06
1.78494e-06
3.01587e-06
1.50827e-06
3.01964e-06
1.23175e-06
3.00946e-06
9.53075e-07
2.97347e-06
6.66222e-07
2.89172e-06
3.55998e-07
2.73206e-06
2.42286e-06
-1.01866e-06
2.1373e-06
5.49293e-07
-9.28593e-06
2.8585e-06
-1.47809e-05
4.73512e-06
-1.46052e-05
5.96009e-06
-1.21067e-05
6.68e-06
-9.23992e-06
7.06729e-06
-6.69518e-06
7.2439e-06
-4.60661e-06
7.28531e-06
-2.93896e-06
7.2374e-06
-1.61615e-06
7.12792e-06
-5.67368e-07
6.97439e-06
2.64503e-07
6.78854e-06
9.24347e-07
6.57839e-06
1.44631e-06
6.3498e-06
1.85742e-06
6.10706e-06
2.17933e-06
5.85353e-06
2.42994e-06
5.59198e-06
2.62399e-06
5.3246e-06
2.77345e-06
5.05317e-06
2.88795e-06
4.77905e-06
2.97535e-06
4.50334e-06
3.04201e-06
4.22684e-06
3.093e-06
3.95012e-06
3.13243e-06
3.67367e-06
3.16353e-06
3.39775e-06
3.18887e-06
3.12263e-06
3.21038e-06
2.84844e-06
3.22935e-06
2.57521e-06
3.24659e-06
2.30299e-06
3.26235e-06
2.03167e-06
3.27614e-06
1.76106e-06
3.28647e-06
1.4907e-06
3.29003e-06
1.21934e-06
3.28082e-06
9.44204e-07
3.24861e-06
6.59165e-07
3.17681e-06
3.50601e-07
3.04061e-06
2.77351e-06
-1.0213e-06
3.15851e-06
9.5036e-07
-1.12575e-05
3.47623e-06
-1.73068e-05
5.36626e-06
-1.64952e-05
6.50638e-06
-1.32469e-05
7.11731e-06
-9.85087e-06
7.40156e-06
-6.97941e-06
7.48952e-06
-4.6946e-06
7.4577e-06
-2.90714e-06
7.35055e-06
-1.509e-06
7.19388e-06
-4.10704e-07
7.00324e-06
4.55131e-07
6.7886e-06
1.139e-06
6.55644e-06
1.67846e-06
6.31136e-06
2.10251e-06
6.0566e-06
2.43408e-06
5.79471e-06
2.69183e-06
5.52774e-06
2.89098e-06
5.25732e-06
3.04386e-06
4.98479e-06
3.16049e-06
4.71114e-06
3.24899e-06
4.43719e-06
3.31597e-06
4.1635e-06
3.36669e-06
3.89047e-06
3.40544e-06
3.61841e-06
3.4356e-06
3.34744e-06
3.45982e-06
3.07766e-06
3.48014e-06
2.80907e-06
3.49794e-06
2.54154e-06
3.51409e-06
2.27495e-06
3.52894e-06
2.009e-06
3.54209e-06
1.74323e-06
3.55223e-06
1.4769e-06
3.55639e-06
1.20846e-06
3.54928e-06
9.34884e-07
3.52218e-06
6.504e-07
3.46136e-06
3.43454e-07
3.34754e-06
3.11701e-06
-5.64471e-07
3.72291e-06
1.8813e-06
-1.37032e-05
4.46719e-06
-1.98927e-05
6.21836e-06
-1.82464e-05
7.18655e-06
-1.42151e-05
7.64459e-06
-1.03089e-05
7.80362e-06
-7.13842e-06
7.79125e-06
-4.68225e-06
7.67965e-06
-2.79553e-06
7.50925e-06
-1.33861e-06
7.30266e-06
-2.04116e-07
7.0728e-06
6.84985e-07
6.82753e-06
1.38428e-06
6.57167e-06
1.9343e-06
6.30845e-06
2.36574e-06
6.04006e-06
2.70247e-06
5.76818e-06
2.9637e-06
5.49419e-06
3.16499e-06
5.21913e-06
3.31892e-06
4.94391e-06
3.43573e-06
4.66914e-06
3.52374e-06
4.39537e-06
3.58974e-06
4.12293e-06
3.63914e-06
3.85199e-06
3.67635e-06
3.58271e-06
3.70488e-06
3.31505e-06
3.72747e-06
3.04894e-06
3.74624e-06
2.78423e-06
3.76265e-06
2.52062e-06
3.77768e-06
2.25779e-06
3.79176e-06
1.99526e-06
3.80463e-06
1.73233e-06
3.81514e-06
1.46801e-06
3.82074e-06
1.20051e-06
3.81679e-06
9.2679e-07
3.7959e-06
6.41672e-07
3.74654e-06
3.35884e-07
3.65332e-06
3.45293e-06
6.23396e-07
3.09946e-06
3.52106e-06
-1.66008e-05
5.89088e-06
-2.22626e-05
7.30153e-06
-1.96571e-05
8.00018e-06
-1.49137e-05
8.26019e-06
-1.0569e-05
8.27174e-06
-7.14996e-06
8.14737e-06
-4.55791e-06
7.9495e-06
-2.59767e-06
7.71199e-06
-1.1011e-06
7.45288e-06
5.49872e-08
7.18183e-06
9.5602e-07
6.90426e-06
1.66186e-06
6.62314e-06
2.21542e-06
6.34025e-06
2.64863e-06
6.05671e-06
2.98601e-06
5.77333e-06
3.24707e-06
5.49078e-06
3.44754e-06
5.20956e-06
3.60013e-06
4.93011e-06
3.71519e-06
4.6527e-06
3.80114e-06
4.37758e-06
3.86486e-06
4.10484e-06
3.91189e-06
3.83445e-06
3.94671e-06
3.56639e-06
3.97294e-06
3.30045e-06
3.9934e-06