/*--------------------------------*- C++ -*----------------------------------*\
  =========                 |
  \\      /  F ield         | OpenFOAM: The Open Source CFD Toolbox
   \\    /   O peration     | Website:  https://openfoam.org
    \\  /    A nd           | Version:  7
     \\/     M anipulation  |
\*---------------------------------------------------------------------------*/
FoamFile
{
    version     2.0;
    format      ascii;
    class       volVectorField;
    location    "0.15";
    object      U;
}
// * * * * * * * * * * * * * * * * * * * * * * * * * * * * * * * * * * * * * //

dimensions      [0 1 -1 0 0 0 0];

internalField   nonuniform List<vector> 
9072
(
(-0.0118797 0.00250548 0)
(0.00380791 -0.00920042 0)
(0.043855 -0.0143677 0)
(0.0871042 -0.0151076 0)
(0.130783 -0.0146331 0)
(0.173634 -0.0139976 0)
(0.215244 -0.0134353 0)
(0.255742 -0.0129759 0)
(0.295397 -0.0126142 0)
(0.334463 -0.0123415 0)
(0.373166 -0.0121473 0)
(0.411717 -0.0120228 0)
(0.450316 -0.011962 0)
(0.489159 -0.011962 0)
(0.528444 -0.0120236 0)
(0.568385 -0.0121505 0)
(0.609218 -0.0123494 0)
(0.651208 -0.0126299 0)
(0.694662 -0.013005 0)
(0.73993 -0.0134904 0)
(0.787415 -0.014105 0)
(0.837574 -0.014869 0)
(0.890905 -0.0157992 0)
(0.947914 -0.0169007 0)
(1.00905 -0.0181562 0)
(1.07461 -0.0195088 0)
(1.14454 -0.0208445 0)
(1.21826 -0.0219689 0)
(1.29436 -0.0225478 0)
(1.3702 -0.0221834 0)
(1.44168 -0.0208754 0)
(1.50471 -0.0179167 0)
(1.55269 -0.00852387 0)
(1.55887 0.00718655 0)
(1.51551 0.0220159 0)
(1.43934 0.0293953 0)
(1.35464 0.0267545 0)
(1.28234 0.0174733 0)
(1.23244 0.00730501 0)
(1.20499 -0.000664415 0)
(1.19317 -0.00941936 0)
(1.1949 -0.0256309 0)
(1.206 -0.0407395 0)
(1.19169 -0.0430673 0)
(1.05824 0.0105989 0)
(0.601484 0.147225 0)
(0.00285913 0.00158327 0)
(0.0271402 -0.0205244 0)
(0.0649999 -0.0296481 0)
(0.104794 -0.0315126 0)
(0.144827 -0.0311905 0)
(0.184372 -0.0303986 0)
(0.22311 -0.0296159 0)
(0.261098 -0.0289667 0)
(0.298518 -0.0284802 0)
(0.335568 -0.0281579 0)
(0.372445 -0.0279911 0)
(0.40934 -0.0279719 0)
(0.446445 -0.0280961 0)
(0.483952 -0.0283648 0)
(0.52206 -0.0287858 0)
(0.560984 -0.0293727 0)
(0.600962 -0.0301454 0)
(0.642259 -0.0311298 0)
(0.685177 -0.0323567 0)
(0.730058 -0.0338614 0)
(0.777284 -0.0356801 0)
(0.827269 -0.037844 0)
(0.880437 -0.0403661 0)
(0.937181 -0.0432221 0)
(0.997794 -0.0463229 0)
(1.06236 -0.0494788 0)
(1.1306 -0.05236 0)
(1.20172 -0.0544556 0)
(1.27413 -0.0550317 0)
(1.34535 -0.0531868 0)
(1.4118 -0.0481312 0)
(1.46838 -0.0386131 0)
(1.51033 -0.0213455 0)
(1.54556 0.00308949 0)
(1.56679 0.0284322 0)
(1.55978 0.0460397 0)
(1.52176 0.0513589 0)
(1.46214 0.0456829 0)
(1.39689 0.0335791 0)
(1.34237 0.0194338 0)
(1.31051 0.00528793 0)
(1.30335 -0.00791433 0)
(1.32526 -0.00304565 0)
(1.40824 0.0736293 0)
(1.3716 0.22549 0)
(0.811667 0.524121 0)
(0.0135846 -0.00901181 0)
(0.0421137 -0.0361217 0)
(0.0787492 -0.0465186 0)
(0.115813 -0.0487602 0)
(0.152854 -0.0483857 0)
(0.189612 -0.0473756 0)
(0.225858 -0.0463518 0)
(0.261613 -0.0455029 0)
(0.297007 -0.0448839 0)
(0.332197 -0.0445057 0)
(0.367355 -0.0443633 0)
(0.402658 -0.04445 0)
(0.438287 -0.0447635 0)
(0.474429 -0.0453083 0)
(0.511281 -0.0460975 0)
(0.549053 -0.0471534 0)
(0.587978 -0.0485071 0)
(0.628313 -0.050198 0)
(0.670345 -0.0522725 0)
(0.714393 -0.0547811 0)
(0.760798 -0.0577723 0)
(0.809919 -0.0612812 0)
(0.862095 -0.0653096 0)
(0.917607 -0.069796 0)
(0.976607 -0.0745757 0)
(1.03902 -0.0793304 0)
(1.1044 -0.0835321 0)
(1.1718 -0.0863916 0)
(1.23961 -0.0868249 0)
(1.30541 -0.0835098 0)
(1.36587 -0.0750831 0)
(1.41657 -0.0602432 0)
(1.45307 -0.0381589 0)
(1.4747 -0.00903807 0)
(1.48152 0.0239809 0)
(1.47245 0.052175 0)
(1.44743 0.0682006 0)
(1.41007 0.0693496 0)
(1.36954 0.0570814 0)
(1.33786 0.0352751 0)
(1.32391 0.0103549 0)
(1.3254 -0.0142815 0)
(1.32187 -0.0416359 0)
(1.28494 0.110564 0)
(1.16662 0.470131 0)
(0.59435 1.02341 0)
(0.01947 -0.0236344 0)
(0.051788 -0.0532771 0)
(0.0882621 -0.0635325 0)
(0.123587 -0.0656696 0)
(0.158441 -0.0651359 0)
(0.193028 -0.0639142 0)
(0.227254 -0.0626801 0)
(0.261155 -0.0616628 0)
(0.294839 -0.0609393 0)
(0.328446 -0.0605309 0)
(0.36213 -0.0604375 0)
(0.396058 -0.0606551 0)
(0.430403 -0.0611841 0)
(0.465348 -0.0620326 0)
(0.501083 -0.0632195 0)
(0.537814 -0.0647747 0)
(0.575766 -0.066739 0)
(0.615182 -0.0691634 0)
(0.65633 -0.0721062 0)
(0.699499 -0.0756283 0)
(0.744989 -0.0797836 0)
(0.793096 -0.0846024 0)
(0.844084 -0.0900644 0)
(0.898133 -0.0960595 0)
(0.95528 -0.102337 0)
(1.01532 -0.108443 0)
(1.07772 -0.113653 0)
(1.14144 -0.116916 0)
(1.2049 -0.116829 0)
(1.2658 -0.111701 0)
(1.32109 -0.0997693 0)
(1.36699 -0.079493 0)
(1.39947 -0.0501862 0)
(1.41602 -0.0129371 0)
(1.41629 0.0269052 0)
(1.40311 0.0607836 0)
(1.38148 0.0808178 0)
(1.35659 0.0832449 0)
(1.33428 0.0682483 0)
(1.3209 0.0402237 0)
(1.31983 0.00975144 0)
(1.32533 -0.00998479 0)
(1.28987 -0.00826822 0)
(1.05411 0.159137 0)
(0.822314 0.623071 0)
(0.377609 1.37652 0)
(0.0222906 -0.040783 0)
(0.0575246 -0.0713301 0)
(0.0944136 -0.0803588 0)
(0.128819 -0.0819871 0)
(0.162214 -0.0812061 0)
(0.19519 -0.0797963 0)
(0.227822 -0.0784048 0)
(0.2602 -0.0772744 0)
(0.292444 -0.0764973 0)
(0.324691 -0.0761047 0)
(0.357092 -0.0761026 0)
(0.389809 -0.0764912 0)
(0.423011 -0.0772743 0)
(0.456876 -0.0784645 0)
(0.491591 -0.0800857 0)
(0.527354 -0.0821749 0)
(0.564379 -0.084781 0)
(0.602894 -0.087964 0)
(0.643144 -0.0917904 0)
(0.685385 -0.0963267 0)
(0.729873 -0.101626 0)
(0.776844 -0.107705 0)
(0.826488 -0.114514 0)
(0.878898 -0.121885 0)
(0.934014 -0.129478 0)
(0.991543 -0.136703 0)
(1.05087 -0.142652 0)
(1.11097 -0.146038 0)
(1.17031 -0.14518 0)
(1.22679 -0.138076 0)
(1.27771 -0.122644 0)
(1.31983 -0.0971281 0)
(1.34961 -0.0609249 0)
(1.36415 -0.016039 0)
(1.36277 0.030694 0)
(1.34958 0.0688664 0)
(1.33216 0.0900277 0)
(1.31702 0.09086 0)
(1.30829 0.0723791 0)
(1.30798 0.0413519 0)
(1.31325 0.00929836 0)
(1.31149 -0.00162676 0)
(1.1972 0.0759086 0)
(0.885999 0.271408 0)
(0.526578 0.798927 0)
(0.193512 1.58162 0)
(0.0235158 -0.0592877 0)
(0.060575 -0.0899889 0)
(0.0979962 -0.0970867 0)
(0.132021 -0.097826 0)
(0.164532 -0.0966463 0)
(0.19638 -0.09501 0)
(0.227802 -0.0934704 0)
(0.258963 -0.0922537 0)
(0.290015 -0.0914551 0)
(0.321108 -0.0911109 0)
(0.352399 -0.0912318 0)
(0.384053 -0.0918216 0)
(0.416237 -0.0928876 0)
(0.449126 -0.094446 0)
(0.482904 -0.0965254 0)
(0.51776 -0.099168 0)
(0.553897 -0.102429 0)
(0.591527 -0.106374 0)
(0.630867 -0.111074 0)
(0.672141 -0.116597 0)
(0.715557 -0.122986 0)
(0.761296 -0.130242 0)
(0.809474 -0.138277 0)
(0.860109 -0.146863 0)
(0.913061 -0.155569 0)
(0.967973 -0.16368 0)
(1.0242 -0.170123 0)
(1.08074 -0.173411 0)
(1.13617 -0.171632 0)
(1.18864 -0.16254 0)
(1.23584 -0.143809 0)
(1.27507 -0.113506 0)
(1.30331 -0.0710159 0)
(1.31773 -0.0190044 0)
(1.31742 0.0340144 0)
(1.30695 0.0752432 0)
(1.29523 0.0955482 0)
(1.28933 0.0932709 0)
(1.29165 0.0723726 0)
(1.2995 0.0412923 0)
(1.30242 0.0110961 0)
(1.25023 0.0408076 0)
(1.02431 0.197946 0)
(0.673839 0.470546 0)
(0.294351 0.987674 0)
(0.0569087 1.67838 0)
(0.0238443 -0.0784254 0)
(0.0618659 -0.109036 0)
(0.099739 -0.113869 0)
(0.133706 -0.113436 0)
(0.165753 -0.111687 0)
(0.196865 -0.10974 0)
(0.227408 -0.108019 0)
(0.257627 -0.106709 0)
(0.287715 -0.105896 0)
(0.317849 -0.105613 0)
(0.348196 -0.105873 0)
(0.378927 -0.106682 0)
(0.410213 -0.108047 0)
(0.442229 -0.109989 0)
(0.475152 -0.112539 0)
(0.509165 -0.115742 0)
(0.544459 -0.119658 0)
(0.581226 -0.124355 0)
(0.619659 -0.129905 0)
(0.659944 -0.136368 0)
(0.702245 -0.143779 0)
(0.746685 -0.152113 0)
(0.793316 -0.16124 0)
(0.842087 -0.170874 0)
(0.892792 -0.180496 0)
(0.94503 -0.189278 0)
(0.998149 -0.196007 0)
(1.0512 -0.199032 0)
(1.10293 -0.196262 0)
(1.15173 -0.185268 0)
(1.19571 -0.163554 0)
(1.23273 -0.129047 0)
(1.26033 -0.0810455 0)
(1.27595 -0.0226618 0)
(1.27852 0.0358451 0)
(1.27267 0.0789055 0)
(1.26792 0.0970921 0)
(1.27108 0.0922484 0)
(1.28147 0.0708023 0)
(1.29094 0.0402892 0)
(1.26685 0.026149 0)
(1.09886 0.133232 0)
(0.812062 0.345177 0)
(0.457129 0.656293 0)
(0.111604 1.14248 0)
(-0.0303696 1.70371 0)
(0.023606 -0.0977302 0)
(0.0620371 -0.128269 0)
(0.100253 -0.130766 0)
(0.134349 -0.128985 0)
(0.166226 -0.126514 0)
(0.196903 -0.124156 0)
(0.226843 -0.122196 0)
(0.256361 -0.120765 0)
(0.285696 -0.119925 0)
(0.31505 -0.119702 0)
(0.344611 -0.120105 0)
(0.374557 -0.121138 0)
(0.405064 -0.12281 0)
(0.436307 -0.125142 0)
(0.468461 -0.128165 0)
(0.501701 -0.131928 0)
(0.536205 -0.13649 0)
(0.572145 -0.141919 0)
(0.609689 -0.148283 0)
(0.648985 -0.155634 0)
(0.690154 -0.163988 0)
(0.733264 -0.173293 0)
(0.778308 -0.183377 0)
(0.825172 -0.193893 0)
(0.8736 -0.204243 0)
(0.92316 -0.213501 0)
(0.973211 -0.220337 0)
(1.02288 -0.222975 0)
(1.07108 -0.219194 0)
(1.11647 -0.206442 0)
(1.15757 -0.18212 0)
(1.19281 -0.144057 0)
(1.22025 -0.0914388 0)
(1.23775 -0.0276919 0)
(1.24449 0.0352666 0)
(1.24497 0.079256 0)
(1.24815 0.0957878 0)
(1.25895 0.0899074 0)
(1.27244 0.0677903 0)
(1.26346 0.0438605 0)
(1.15328 0.0974667 0)
(0.904895 0.257857 0)
(0.601244 0.496832 0)
(0.282408 0.809754 0)
(-0.00128806 1.24837 0)
(-0.0665764 1.68432 0)
(0.0230105 -0.116905 0)
(0.0615471 -0.147558 0)
(0.10003 -0.147794 0)
(0.134359 -0.14457 0)
(0.166263 -0.141252 0)
(0.196732 -0.138385 0)
(0.226293 -0.13612 0)
(0.255317 -0.134525 0)
(0.284084 -0.133635 0)
(0.312827 -0.133459 0)
(0.34175 -0.133998 0)
(0.371043 -0.135253 0)
(0.400888 -0.137232 0)
(0.431462 -0.139951 0)
(0.462935 -0.143445 0)
(0.495478 -0.147759 0)
(0.529252 -0.152951 0)
(0.564414 -0.159085 0)
(0.601102 -0.166221 0)
(0.639432 -0.174398 0)
(0.679479 -0.183613 0)
(0.721261 -0.193779 0)
(0.764717 -0.204683 0)
(0.80968 -0.215919 0)
(0.855849 -0.226818 0)
(0.902775 -0.236372 0)
(0.949837 -0.243159 0)
(0.996248 -0.245312 0)
(1.04107 -0.240526 0)
(1.08325 -0.226182 0)
(1.12166 -0.199636 0)
(1.15526 -0.158656 0)
(1.1825 -0.102351 0)
(1.20175 -0.0345023 0)
(1.21346 0.0319233 0)
(1.22206 0.0771738 0)
(1.23293 0.0932868 0)
(1.24768 0.0860918 0)
(1.24672 0.0657886 0)
(1.17412 0.0853981 0)
(0.980131 0.204095 0)
(0.706027 0.395062 0)
(0.429905 0.635482 0)
(0.163028 0.935958 0)
(-0.0510024 1.31986 0)
(-0.066175 1.64946 0)
(0.0222401 -0.135782 0)
(0.060741 -0.166838 0)
(0.0994552 -0.164956 0)
(0.134071 -0.160245 0)
(0.166127 -0.155985 0)
(0.196553 -0.152519 0)
(0.225913 -0.149881 0)
(0.254618 -0.148077 0)
(0.282984 -0.147105 0)
(0.311268 -0.146955 0)
(0.339693 -0.147618 0)
(0.36846 -0.149087 0)
(0.397757 -0.151364 0)
(0.427763 -0.154465 0)
(0.458647 -0.158419 0)
(0.490571 -0.16327 0)
(0.523685 -0.16907 0)
(0.558125 -0.175876 0)
(0.594006 -0.183737 0)
(0.631409 -0.192676 0)
(0.670369 -0.202663 0)
(0.710856 -0.21358 0)
(0.752761 -0.225168 0)
(0.795868 -0.236969 0)
(0.839843 -0.248249 0)
(0.884224 -0.257932 0)
(0.928416 -0.26453 0)
(0.971709 -0.266113 0)
(1.01332 -0.260334 0)
(1.05241 -0.244553 0)
(1.08819 -0.216126 0)
(1.12005 -0.172774 0)
(1.14652 -0.113609 0)
(1.16642 -0.0430212 0)
(1.18306 0.0258051 0)
(1.2006 0.0738927 0)
(1.21688 0.0895858 0)
(1.2192 0.0798009 0)
(1.16537 0.0903791 0)
(1.02085 0.168845 0)
(0.789371 0.322522 0)
(0.543616 0.51854 0)
(0.311103 0.751579 0)
(0.0973199 1.03509 0)
(-0.054712 1.365 0)
(-0.0470024 1.61714 0)
(0.0214697 -0.154296 0)
(0.0598805 -0.186096 0)
(0.0988151 -0.182255 0)
(0.13374 -0.176042 0)
(0.166023 -0.17077 0)
(0.196525 -0.16663 0)
(0.225823 -0.163557 0)
(0.254357 -0.161495 0)
(0.282466 -0.160406 0)
(0.310429 -0.160259 0)
(0.338485 -0.161026 0)
(0.366846 -0.162694 0)
(0.395706 -0.165258 0)
(0.425245 -0.168728 0)
(0.455631 -0.173128 0)
(0.487017 -0.178496 0)
(0.519544 -0.184877 0)
(0.553328 -0.192319 0)
(0.588461 -0.200855 0)
(0.624992 -0.210488 0)
(0.662918 -0.221161 0)
(0.702168 -0.23272 0)
(0.742588 -0.244863 0)
(0.783924 -0.257079 0)
(0.825811 -0.268583 0)
(0.867778 -0.278241 0)
(0.909255 -0.284519 0)
(0.949601 -0.285452 0)
(0.988156 -0.278682 0)
(1.02427 -0.261584 0)
(1.05742 -0.231543 0)
(1.08729 -0.186204 0)
(1.1121 -0.124735 0)
(1.13118 -0.0525332 0)
(1.15049 0.0170283 0)
(1.17301 0.0697879 0)
(1.17859 0.0806706 0)
(1.13777 0.0984238 0)
(1.03206 0.157476 0)
(0.848838 0.2715 0)
(0.636228 0.430357 0)
(0.430761 0.621347 0)
(0.241542 0.845112 0)
(0.0762664 1.1092 0)
(-0.0291157 1.39214 0)
(-0.0213284 1.59708 0)
(0.0208451 -0.172467 0)
(0.059151 -0.205341 0)
(0.0983035 -0.19969 0)
(0.133538 -0.191977 0)
(0.166092 -0.185644 0)
(0.196755 -0.180771 0)
(0.226102 -0.177208 0)
(0.254586 -0.174844 0)
(0.282564 -0.173604 0)
(0.310331 -0.17343 0)
(0.338138 -0.174281 0)
(0.366205 -0.176129 0)
(0.394732 -0.178963 0)
(0.423901 -0.182785 0)
(0.453878 -0.187613 0)
(0.484809 -0.193475 0)
(0.516823 -0.200409 0)
(0.550022 -0.208446 0)
(0.584472 -0.217605 0)
(0.620197 -0.227865 0)
(0.657159 -0.239138 0)
(0.69525 -0.251235 0)
(0.734279 -0.263809 0)
(0.773955 -0.276304 0)
(0.813894 -0.287885 0)
(0.853615 -0.297376 0)
(0.892568 -0.303211 0)
(0.93017 -0.303413 0)
(0.965853 -0.295637 0)
(0.999101 -0.277298 0)
(1.02961 -0.245817 0)
(1.0572 -0.198714 0)
(1.07965 -0.135195 0)
(1.09736 -0.0619656 0)
(1.11649 0.00717681 0)
(1.13444 0.0662269 0)
(1.1299 0.0926616 0)
(1.04697 0.146686 0)
(0.900266 0.237141 0)
(0.717917 0.362084 0)
(0.533126 0.52033 0)
(0.363795 0.705105 0)
(0.21297 0.918534 0)
(0.0886157 1.16325 0)
(0.0149145 1.41174 0)
(0.00632423 1.5927 0)
(0.0204568 -0.190378 0)
(0.0586607 -0.224589 0)
(0.098028 -0.217254 0)
(0.133564 -0.208057 0)
(0.166411 -0.200632 0)
(0.197296 -0.194981 0)
(0.226779 -0.190885 0)
(0.255316 -0.188179 0)
(0.283273 -0.186752 0)
(0.310954 -0.186523 0)
(0.338619 -0.187434 0)
(0.366497 -0.189442 0)
(0.39479 -0.192527 0)
(0.423682 -0.196681 0)
(0.453334 -0.201914 0)
(0.48389 -0.208245 0)
(0.515466 -0.215698 0)
(0.54815 -0.224291 0)
(0.581988 -0.23402 0)
(0.616978 -0.24484 0)
(0.653056 -0.256633 0)
(0.69008 -0.269169 0)
(0.727829 -0.282061 0)
(0.765984 -0.294708 0)
(0.804141 -0.306235 0)
(0.841815 -0.31543 0)
(0.87847 -0.320707 0)
(0.913561 -0.320095 0)
(0.946591 -0.311278 0)
(0.977133 -0.291725 0)
(1.00505 -0.258882 0)
(1.0301 -0.210154 0)
(1.04997 -0.144759 0)
(1.06683 -0.070933 0)
(1.08529 -0.00153182 0)
(1.10584 0.0647761 0)
(1.07744 0.122587 0)
(0.958414 0.208075 0)
(0.799974 0.315208 0)
(0.630873 0.443323 0)
(0.472219 0.596338 0)
(0.333281 0.77271 0)
(0.215786 0.974901 0)
(0.124523 1.20271 0)
(0.0725596 1.4286 0)
(0.0370512 1.60931 0)
(0.0203396 -0.20816 0)
(0.0584452 -0.243839 0)
(0.0980185 -0.234927 0)
(0.133846 -0.224271 0)
(0.166999 -0.215741 0)
(0.19815 -0.209284 0)
(0.227839 -0.204618 0)
(0.256515 -0.201536 0)
(0.284546 -0.199892 0)
(0.312239 -0.19958 0)
(0.339862 -0.200525 0)
(0.367645 -0.202671 0)
(0.395794 -0.205984 0)
(0.424493 -0.210448 0)
(0.453903 -0.216063 0)
(0.484158 -0.222835 0)
(0.515368 -0.230774 0)
(0.547606 -0.239881 0)
(0.580903 -0.25013 0)
(0.615234 -0.261448 0)
(0.650511 -0.273684 0)
(0.68657 -0.286571 0)
(0.723162 -0.299681 0)
(0.75995 -0.31237 0)
(0.796514 -0.323724 0)
(0.832365 -0.332507 0)
(0.866976 -0.337121 0)
(0.899828 -0.335608 0)
(0.930465 -0.325691 0)
(0.958517 -0.304899 0)
(0.983975 -0.270678 0)
(1.0063 -0.220466 0)
(1.0237 -0.153958 0)
(1.04054 -0.080792 0)
(1.06036 -0.00980763 0)
(1.08891 0.0740736 0)
(1.01839 0.165303 0)
(0.88276 0.274788 0)
(0.728907 0.39004 0)
(0.577369 0.515801 0)
(0.442057 0.660327 0)
(0.329404 0.826489 0)
(0.241075 1.01693 0)
(0.176795 1.23139 0)
(0.144116 1.44571 0)
(0.0727441 1.65302 0)
(0.0204843 -0.22595 0)
(0.0584804 -0.263103 0)
(0.0982344 -0.252705 0)
(0.134348 -0.24062 0)
(0.167815 -0.230982 0)
(0.199268 -0.2237 0)
(0.229222 -0.21844 0)
(0.258112 -0.214953 0)
(0.2863 -0.213063 0)
(0.314094 -0.212642 0)
(0.341762 -0.213596 0)
(0.369538 -0.215854 0)
(0.397628 -0.219373 0)
(0.426215 -0.224123 0)
(0.455456 -0.230093 0)
(0.485482 -0.237277 0)
(0.516393 -0.245669 0)
(0.548252 -0.25525 0)
(0.581076 -0.265971 0)
(0.614823 -0.27773 0)
(0.649387 -0.290342 0)
(0.684586 -0.303502 0)
(0.720155 -0.316742 0)
(0.755741 -0.329379 0)
(0.790916 -0.340464 0)
(0.82519 -0.348735 0)
(0.85804 -0.35259 0)
(0.888958 -0.350091 0)
(0.917509 -0.339004 0)
(0.943369 -0.316907 0)
(0.9666 -0.281215 0)
(0.986056 -0.229709 0)
(1.00129 -0.163223 0)
(1.01871 -0.0922906 0)
(1.04663 -0.01927 0)
(1.05839 0.0923318 0)
(0.957456 0.215813 0)
(0.821525 0.341601 0)
(0.680662 0.459107 0)
(0.547325 0.579018 0)
(0.433094 0.713425 0)
(0.34373 0.868049 0)
(0.281389 1.04651 0)
(0.241044 1.25042 0)
(0.235358 1.46265 0)
(0.128592 1.72275 0)
(0.0208048 -0.243794 0)
(0.058679 -0.282467 0)
(0.0985538 -0.270613 0)
(0.134946 -0.257128 0)
(0.168727 -0.246391 0)
(0.200505 -0.238276 0)
(0.230765 -0.232404 0)
(0.259926 -0.228489 0)
(0.288339 -0.22633 0)
(0.316307 -0.225775 0)
(0.344096 -0.226712 0)
(0.371939 -0.229059 0)
(0.400042 -0.232757 0)
(0.428585 -0.237768 0)
(0.457723 -0.244064 0)
(0.487581 -0.251628 0)
(0.518252 -0.260436 0)
(0.549791 -0.27045 0)
(0.582201 -0.281594 0)
(0.615431 -0.293739 0)
(0.649364 -0.306665 0)
(0.683805 -0.320031 0)
(0.718479 -0.333328 0)
(0.753029 -0.345835 0)
(0.787024 -0.356572 0)
(0.819975 -0.364258 0)
(0.851361 -0.367286 0)
(0.880679 -0.363741 0)
(0.907498 -0.351435 0)
(0.931565 -0.32797 0)
(0.952779 -0.290762 0)
(0.969261 -0.238248 0)
(0.983066 -0.173371 0)
(1.00133 -0.10614 0)
(1.04206 -0.0166249 0)
(1.01549 0.12148 0)
(0.901596 0.269774 0)
(0.775355 0.404387 0)
(0.649696 0.520446 0)
(0.533694 0.633166 0)
(0.438258 0.75663 0)
(0.369442 0.898619 0)
(0.330685 1.06435 0)
(0.314532 1.25794 0)
(0.35065 1.47619 0)
(0.164277 1.84335 0)
(-0.00909275 0.00214605 0)
(-0.00444242 -0.00470036 0)
(0.0197824 -0.00847481 0)
(0.049198 -0.00975285 0)
(0.0797681 -0.00930854 0)
(0.107629 -0.00807111 0)
(0.130921 -0.00656945 0)
(0.149132 -0.00500735 0)
(0.162551 -0.00357842 0)
(0.171693 -0.00233285 0)
(0.177236 -0.00129508 0)
(0.179843 -0.000432514 0)
(0.179931 0.000306022 0)
(0.178045 0.000902686 0)
(0.174668 0.00134143 0)
(0.170171 0.00164495 0)
(0.164843 0.00185907 0)
(0.158873 0.00202625 0)
(0.152394 0.00216337 0)
(0.145513 0.00227327 0)
(0.138318 0.00236186 0)
(0.130874 0.0024338 0)
(0.123232 0.00249284 0)
(0.115425 0.00254251 0)
(0.107477 0.00258567 0)
(0.099399 0.0026274 0)
(0.0911909 0.00266904 0)
(0.0828484 0.00271142 0)
(0.0743628 0.00275437 0)
(0.0657249 0.00279689 0)
(0.0569253 0.00283866 0)
(0.0479587 0.00287599 0)
(0.0388345 0.00290268 0)
(0.0295873 0.0029072 0)
(0.0203301 0.0028535 0)
(0.0113799 0.00263488 0)
(0.00312131 0.00183126 0)
(-0.000704971 8.81202e-05 0)
(-0.00416559 0.00411383 0)
(0.00348507 -0.00938864 0)
(0.027365 -0.0168736 0)
(0.0560221 -0.0195558 0)
(0.0855785 -0.0188322 0)
(0.112414 -0.0163459 0)
(0.134766 -0.0132351 0)
(0.15217 -0.0100525 0)
(0.164982 -0.00716139 0)
(0.173686 -0.00465724 0)
(0.17895 -0.00256853 0)
(0.181374 -0.00085785 0)
(0.181547 0.000535701 0)
(0.179901 0.00162696 0)
(0.17675 0.00246092 0)
(0.172419 0.00309619 0)
(0.167173 0.00358339 0)
(0.161219 0.00396539 0)
(0.154719 0.00426638 0)
(0.14779 0.00450042 0)
(0.140527 0.00468433 0)
(0.133002 0.00483047 0)
(0.12527 0.0049485 0)
(0.117369 0.00504735 0)
(0.109327 0.00513427 0)
(0.101159 0.00521799 0)
(0.092876 0.0053026 0)
(0.0844799 0.0053912 0)
(0.0759691 0.00548556 0)
(0.0673411 0.00558575 0)
(0.0585933 0.00569128 0)
(0.0497269 0.00579622 0)
(0.0407548 0.00588725 0)
(0.0317146 0.00593513 0)
(0.022713 0.00586044 0)
(0.0140176 0.00545823 0)
(0.00594346 0.00406098 0)
(0.00104986 0.000858394 0)
(0.000216082 0.00313537 0)
(0.00888587 -0.0163667 0)
(0.032442 -0.0276156 0)
(0.0605378 -0.0316643 0)
(0.0890709 -0.0304359 0)
(0.114585 -0.0264045 0)
(0.135562 -0.0213458 0)
(0.151697 -0.0162042 0)
(0.163452 -0.0115315 0)
(0.171332 -0.00748787 0)
(0.175999 -0.00411399 0)
(0.178012 -0.00135807 0)
(0.177891 0.00087795 0)
(0.176062 0.00266121 0)
(0.172843 0.00405757 0)
(0.168523 0.00513302 0)
(0.163333 0.00595894 0)
(0.157464 0.00660166 0)
(0.151074 0.00710488 0)
(0.144279 0.00749689 0)
(0.137168 0.00780445 0)
(0.129812 0.00804814 0)
(0.122264 0.00824378 0)
(0.11456 0.00840551 0)
(0.106729 0.00854521 0)
(0.0987887 0.0086749 0)
(0.0907532 0.00880156 0)
(0.0826302 0.00892978 0)
(0.0744229 0.00906235 0)
(0.0661343 0.00919975 0)
(0.0577681 0.00934032 0)
(0.0493314 0.00947558 0)
(0.0408426 0.00958437 0)
(0.0323423 0.00962079 0)
(0.0239268 0.00946876 0)
(0.0157958 0.00884801 0)
(0.00816237 0.00696448 0)
(0.00273153 0.00271851 0)
(0.00194508 0.000944098 0)
(0.0109994 -0.0238315 0)
(0.0351724 -0.0385673 0)
(0.0637032 -0.0437566 0)
(0.0919059 -0.0417893 0)
(0.116422 -0.0360401 0)
(0.136103 -0.0289679 0)
(0.150923 -0.0218826 0)
(0.161502 -0.0154912 0)
(0.168424 -0.00999017 0)
(0.172357 -0.00541066 0)
(0.173838 -0.00167273 0)
(0.173345 0.00135414 0)
(0.171277 0.00377327 0)
(0.16794 0.00568 0)
(0.163594 0.00716082 0)
(0.158445 0.00830447 0)
(0.152669 0.00919339 0)
(0.146412 0.00988718 0)
(0.139781 0.0104275 0)
(0.132859 0.0108502 0)
(0.125715 0.0111835 0)
(0.118397 0.0114497 0)
(0.110941 0.0116683 0)
(0.103375 0.011855 0)
(0.0957183 0.0120242 0)
(0.087986 0.0121853 0)
(0.0801891 0.0123444 0)
(0.0723342 0.0125056 0)
(0.0644283 0.0126695 0)
(0.0564787 0.0128331 0)
(0.0484967 0.0129853 0)
(0.0405033 0.0130981 0)
(0.0325372 0.0131117 0)
(0.0246766 0.0128848 0)
(0.0170442 0.0120987 0)
(0.00975344 0.0099431 0)
(0.00388494 0.00524925 0)
(0.00114978 -0.00135761 0)
(0.0100154 -0.0315295 0)
(0.0359286 -0.0499949 0)
(0.0660452 -0.0560645 0)
(0.0946833 -0.0529809 0)
(0.118584 -0.045249 0)
(0.137111 -0.0360501 0)
(0.150631 -0.0270253 0)
(0.159986 -0.0189792 0)
(0.165877 -0.0121105 0)
(0.16899 -0.00641599 0)
(0.169859 -0.00177644 0)
(0.168926 0.00197257 0)
(0.166565 0.0049686 0)
(0.16306 0.00733621 0)
(0.158646 0.00918403 0)
(0.153508 0.0106173 0)
(0.147803 0.0117318 0)
(0.141663 0.0125996 0)
(0.135186 0.013274 0)
(0.12845 0.0138 0)
(0.121515 0.0142131 0)
(0.114429 0.0145416 0)
(0.107225 0.0148091 0)
(0.0999288 0.0150348 0)
(0.0925601 0.0152354 0)
(0.0851346 0.0154221 0)
(0.0776647 0.0156029 0)
(0.070159 0.0157822 0)
(0.0626264 0.0159608 0)
(0.0550764 0.0161347 0)
(0.0475215 0.0162902 0)
(0.0399825 0.0163943 0)
(0.0324918 0.0163776 0)
(0.0251041 0.0160856 0)
(0.017869 0.0151917 0)
(0.0108175 0.0129413 0)
(0.00459552 0.00821875 0)
(-0.00193037 -0.00282981 0)
(0.00644914 -0.0394548 0)
(0.0352628 -0.062382 0)
(0.0681146 -0.0689848 0)
(0.0978617 -0.0642281 0)
(0.121448 -0.0541218 0)
(0.138918 -0.0426175 0)
(0.151141 -0.0316249 0)
(0.159232 -0.0219746 0)
(0.164031 -0.0138219 0)
(0.16626 -0.00710177 0)
(0.16645 -0.00164285 0)
(0.16502 0.00275775 0)
(0.162315 0.0062713 0)
(0.158594 0.00905055 0)
(0.154068 0.011226 0)
(0.148902 0.0129181 0)
(0.143235 0.0142338 0)
(0.137185 0.0152566 0)
(0.130839 0.0160498 0)
(0.124267 0.0166666 0)
(0.117524 0.017149 0)
(0.110653 0.0175304 0)
(0.103685 0.0178384 0)
(0.096644 0.0180952 0)
(0.089548 0.0183192 0)
(0.0824127 0.0185237 0)
(0.0752504 0.0187176 0)
(0.0680704 0.0189062 0)
(0.0608821 0.01909 0)
(0.0536951 0.0192642 0)
(0.0465217 0.0194134 0)
(0.0393794 0.019501 0)
(0.0322913 0.0194528 0)
(0.0252875 0.0191121 0)
(0.0183558 0.0181667 0)
(0.0114684 0.0159565 0)
(0.00499962 0.0114668 0)
(-0.00723397 -0.00253411 0)
(0.00107003 -0.0478316 0)
(0.0339597 -0.0762711 0)
(0.0706053 -0.0829048 0)
(0.101935 -0.0757204 0)
(0.125345 -0.0627282 0)
(0.141757 -0.0486842 0)
(0.152638 -0.0356717 0)
(0.159409 -0.0244582 0)
(0.163057 -0.0151006 0)
(0.164343 -0.00744272 0)
(0.163798 -0.00124729 0)
(0.161817 0.00373292 0)
(0.158717 0.00770373 0)
(0.154734 0.0108446 0)
(0.150052 0.0133069 0)
(0.144818 0.015225 0)
(0.139153 0.0167161 0)
(0.133159 0.0178733 0)
(0.126913 0.018769 0)
(0.120476 0.0194631 0)
(0.113899 0.0200035 0)
(0.107217 0.0204283 0)
(0.10046 0.0207683 0)
(0.0936492 0.0210483 0)
(0.0868004 0.0212885 0)
(0.079928 0.0215037 0)
(0.0730438 0.0217039 0)
(0.0661562 0.0218947 0)
(0.0592738 0.0220769 0)
(0.0524053 0.0222449 0)
(0.0455605 0.0223824 0)
(0.0387521 0.0224512 0)
(0.0319923 0.0223763 0)
(0.0252887 0.0220072 0)
(0.0185818 0.0210605 0)
(0.0118078 0.018984 0)
(0.00519207 0.0148718 0)
(-0.0146388 0.000345749 0)
(-0.00502551 -0.0572045 0)
(0.0331506 -0.0921977 0)
(0.0743996 -0.0981094 0)
(0.107466 -0.0875427 0)
(0.130606 -0.0710654 0)
(0.14583 -0.0542226 0)
(0.155259 -0.0391355 0)
(0.160626 -0.0264019 0)
(0.163056 -0.0159209 0)
(0.163338 -0.00741446 0)
(0.162002 -0.000566733 0)
(0.15942 0.00491952 0)
(0.155879 0.0092859 0)
(0.151588 0.0127373 0)
(0.146709 0.0154443 0)
(0.141365 0.0175546 0)
(0.135663 0.0191942 0)
(0.129689 0.0204643 0)
(0.123508 0.0214451 0)
(0.117175 0.0222025 0)
(0.11073 0.0227892 0)
(0.104208 0.0232472 0)
(0.0976316 0.0236106 0)
(0.0910197 0.0239061 0)
(0.0843867 0.0241558 0)
(0.0777445 0.0243757 0)
(0.0711032 0.0245764 0)
(0.0644695 0.0247643 0)
(0.0578504 0.0249404 0)
(0.0512521 0.0250988 0)
(0.0446808 0.0252229 0)
(0.0381435 0.0252748 0)
(0.0316415 0.0251818 0)
(0.0251628 0.0248055 0)
(0.0186163 0.023898 0)
(0.0119216 0.0220128 0)
(0.00523736 0.018343 0)
(-0.0237135 0.00645156 0)
(-0.0100788 -0.0682368 0)
(0.0344248 -0.110609 0)
(0.0805915 -0.11472 0)
(0.115081 -0.0996374 0)
(0.137563 -0.079041 0)
(0.151315 -0.0591581 0)
(0.159112 -0.0419638 0)
(0.162958 -0.0277682 0)
(0.164087 -0.0162536 0)
(0.163304 -0.00699257 0)
(0.161124 0.00042077 0)
(0.157893 0.00633786 0)
(0.153865 0.0110368 0)
(0.149223 0.0147468 0)
(0.144103 0.0176561 0)
(0.13861 0.0199238 0)
(0.132831 0.021684 0)
(0.126839 0.0230449 0)
(0.120688 0.0240928 0)
(0.114421 0.0248988 0)
(0.108076 0.0255197 0)
(0.101679 0.0260008 0)
(0.0952494 0.0263788 0)
(0.0888029 0.0266826 0)
(0.082351 0.0269354 0)
(0.0759029 0.0271545 0)
(0.0694663 0.0273513 0)
(0.0630457 0.0275328 0)
(0.0566452 0.0277002 0)
(0.050268 0.0278479 0)
(0.043916 0.0279597 0)
(0.0375895 0.0279994 0)
(0.03128 0.0278988 0)
(0.0249603 0.027535 0)
(0.018521 0.0266969 0)
(0.0118802 0.0250326 0)
(0.00518297 0.0218171 0)
(-0.0333251 0.0153142 0)
(-0.0112439 -0.0817619 0)
(0.0399994 -0.131751 0)
(0.0904752 -0.132595 0)
(0.125427 -0.111759 0)
(0.146524 -0.0864602 0)
(0.158365 -0.0633668 0)
(0.164277 -0.0440814 0)
(0.166454 -0.0285102 0)
(0.166189 -0.0160662 0)
(0.164273 -0.00615188 0)
(0.161195 0.00173675 0)
(0.157267 0.00800759 0)
(0.152709 0.012975 0)
(0.147673 0.016891 0)
(0.142272 0.0199594 0)
(0.13659 0.0223495 0)
(0.130696 0.024202 0)
(0.124647 0.0256309 0)
(0.118488 0.0267277 0)
(0.112253 0.0275672 0)
(0.105971 0.0282099 0)
(0.0996634 0.0287039 0)
(0.0933453 0.0290879 0)
(0.0870284 0.0293928 0)
(0.0807212 0.0296429 0)
(0.0744295 0.0298566 0)
(0.0681582 0.0300459 0)
(0.0619089 0.0302185 0)
(0.0556823 0.0303762 0)
(0.0494781 0.0305141 0)
(0.043293 0.0306168 0)
(0.0371211 0.0306506 0)
(0.0309453 0.0305539 0)
(0.024727 0.0302196 0)
(0.0183498 0.0294716 0)
(0.0117413 0.0280373 0)
(0.00506525 0.0252524 0)
(-0.0409641 0.0254733 0)
(-0.0039936 -0.0990142 0)
(0.0528368 -0.155497 0)
(0.105445 -0.151174 0)
(0.139098 -0.123426 0)
(0.157738 -0.0930195 0)
(0.16709 -0.0666776 0)
(0.170805 -0.0453931 0)
(0.17114 -0.0285719 0)
(0.169374 -0.0153226 0)
(0.166256 -0.00486611 0)
(0.162226 0.00340269 0)
(0.157555 0.00994787 0)
(0.152425 0.0151184 0)
(0.146956 0.0191872 0)
(0.141235 0.0223712 0)
(0.135324 0.0248483 0)
(0.129276 0.0267647 0)
(0.123134 0.0282385 0)
(0.11693 0.0293654 0)
(0.110689 0.0302233 0)
(0.104434 0.0308753 0)
(0.0981799 0.0313718 0)
(0.091937 0.0317534 0)
(0.0857132 0.0320525 0)
(0.0795133 0.0322945 0)
(0.0733399 0.0324985 0)
(0.0671944 0.0326775 0)
(0.061075 0.0328398 0)
(0.0549788 0.0329882 0)
(0.0489013 0.0331183 0)
(0.0428342 0.0332164 0)
(0.0367654 0.033252 0)
(0.0306706 0.0331703 0)
(0.0245037 0.0328798 0)
(0.0181493 0.0322349 0)
(0.0115524 0.0310252 0)
(0.00491261 0.0286244 0)
(-0.0422323 0.0344402 0)
(0.0175013 -0.121272 0)
(0.0763134 -0.180959 0)
(0.126712 -0.169289 0)
(0.156491 -0.133891 0)
(0.171339 -0.0983194 0)
(0.177534 -0.0688841 0)
(0.178709 -0.0457889 0)
(0.177013 -0.0278914 0)
(0.173636 -0.0139846 0)
(0.169243 -0.00310875 0)
(0.164208 0.00543951 0)
(0.15875 0.012177 0)
(0.153008 0.0174841 0)
(0.147069 0.0216517 0)
(0.14099 0.0249077 0)
(0.134814 0.0274365 0)
(0.128576 0.029388 0)
(0.122303 0.0308836 0)
(0.116017 0.0320218 0)
(0.109735 0.0328827 0)
(0.103471 0.0335315 0)
(0.097234 0.0340202 0)
(0.0910302 0.0343911 0)
(0.084863 0.0346777 0)
(0.0787336 0.0349062 0)
(0.0726408 0.0350968 0)
(0.0665822 0.0352634 0)
(0.0605528 0.0354148 0)
(0.0545454 0.0355549 0)
(0.0485511 0.0356804 0)
(0.042557 0.0357793 0)
(0.0365448 0.0358248 0)
(0.0304848 0.0357688 0)
(0.0243261 0.0355338 0)
(0.0179598 0.0349987 0)
(0.0113531 0.0339988 0)
(0.0047482 0.0319229 0)
(-0.0272622 0.0363175 0)
(0.0580559 -0.147459 0)
(0.112821 -0.205766 0)
(0.154752 -0.185086 0)
(0.177624 -0.142195 0)
(0.187295 -0.101906 0)
(0.18966 -0.0697629 0)
(0.187948 -0.0451527 0)
(0.184035 -0.0264045 0)
(0.178938 -0.0120136 0)
(0.173201 -0.000854021 0)
(0.167111 0.00786675 0)
(0.160827 0.0147117 0)
(0.154437 0.0200876 0)
(0.147991 0.0242999 0)
(0.14152 0.0275842 0)
(0.135044 0.0301291 0)
(0.128581 0.0320871 0)
(0.122143 0.0335813 0)
(0.115741 0.0347119 0)
(0.109382 0.0355605 0)
(0.103074 0.0361936 0)
(0.096819 0.0366643 0)
(0.0906192 0.0370161 0)
(0.0844731 0.0372836 0)
(0.0783782 0.0374938 0)
(0.0723296 0.0376677 0)
(0.066321 0.03782 0)
(0.0603435 0.0379604 0)
(0.054386 0.0380939 0)
(0.0484352 0.0382184 0)
(0.0424733 0.0383239 0)
(0.036477 0.0383873 0)
(0.0304118 0.0383669 0)
(0.0242244 0.0381968 0)
(0.0178157 0.0377741 0)
(0.0111776 0.0369644 0)
(0.00459215 0.0351495 0)
(0.0187129 0.0248326 0)
(0.117302 -0.17353 0)
(0.160807 -0.226099 0)
(0.18856 -0.196463 0)
(0.201995 -0.147391 0)
(0.205365 -0.103345 0)
(0.203327 -0.0690965 0)
(0.198425 -0.0433676 0)
(0.192127 -0.0240447 0)
(0.185214 -0.0093693 0)
(0.178072 0.00192504 0)
(0.170886 0.0107044 0)
(0.163739 0.0175686 0)
(0.15667 0.022944 0)
(0.149687 0.0271457 0)
(0.142793 0.0304142 0)
(0.135985 0.0329397 0)
(0.129264 0.0348753 0)
(0.122628 0.0363448 0)
(0.116077 0.0374489 0)
(0.109609 0.0382696 0)
(0.103223 0.0388743 0)
(0.0969175 0.0393168 0)
(0.0906879 0.0396413 0)
(0.0845292 0.0398832 0)
(0.0784347 0.0400703 0)
(0.0723958 0.0402242 0)
(0.0664022 0.0403606 0)
(0.0604415 0.0404903 0)
(0.0544984 0.0406191 0)
(0.0485551 0.0407466 0)
(0.0425896 0.0408646 0)