/*--------------------------------*- C++ -*----------------------------------*\
  =========                 |
  \\      /  F ield         | OpenFOAM: The Open Source CFD Toolbox
   \\    /   O peration     | Website:  https://openfoam.org
    \\  /    A nd           | Version:  7
     \\/     M anipulation  |
\*---------------------------------------------------------------------------*/
FoamFile
{
    version     2.0;
    format      ascii;
    class       surfaceScalarField;
    location    "0.2";
    object      alphaPhi0.water;
}
// * * * * * * * * * * * * * * * * * * * * * * * * * * * * * * * * * * * * * //

dimensions      [0 3 -1 0 0 0 0];

internalField   nonuniform List<scalar> 
17936
(
-8.32345e-07
8.32345e-07
2.45296e-07
-1.07764e-06
2.06334e-06
-1.81804e-06
4.0687e-06
-2.00536e-06
6.06197e-06
-1.99327e-06
7.98598e-06
-1.92401e-06
9.83571e-06
-1.84974e-06
1.16209e-05
-1.78519e-06
1.33548e-05
-1.73385e-06
1.50506e-05
-1.69581e-06
1.67205e-05
-1.66993e-06
1.83753e-05
-1.65476e-06
2.00243e-05
-1.64899e-06
2.16757e-05
-1.65147e-06
2.33369e-05
-1.66117e-06
2.50141e-05
-1.67723e-06
2.6713e-05
-1.69889e-06
2.84385e-05
-1.72545e-06
3.01947e-05
-1.75625e-06
3.19852e-05
-1.79054e-06
3.38127e-05
-1.82745e-06
3.56786e-05
-1.86593e-06
3.75833e-05
-1.90471e-06
3.95255e-05
-1.94216e-06
4.15018e-05
-1.97625e-06
4.35061e-05
-2.00434e-06
4.55291e-05
-2.02302e-06
4.75571e-05
-2.02799e-06
4.9571e-05
-2.01386e-06
5.15448e-05
-1.97384e-06
5.34441e-05
-1.89932e-06
5.52232e-05
-1.77907e-06
5.6821e-05
-1.59782e-06
5.8156e-05
-1.33499e-06
5.91083e-05
-9.52339e-07
5.94838e-05
-3.75484e-07
5.88883e-05
5.9553e-07
5.67009e-05
2.18744e-06
5.22216e-05
4.47923e-06
4.46364e-05
7.58522e-06
3.35169e-05
1.11195e-05
1.98293e-05
1.36876e-05
6.12305e-06
1.37062e-05
-4.66783e-06
1.07909e-05
-7.33725e-06
4.75506e-06
-8.00287e-06
1.92005e-07
6.4034e-07
1.47488e-06
-2.36052e-06
3.21365e-06
-3.55681e-06
5.08164e-06
-3.87335e-06
6.95649e-06
-3.86812e-06
8.79271e-06
-3.76023e-06
1.05788e-05
-3.63583e-06
1.23181e-05
-3.52444e-06
1.40192e-05
-3.43497e-06
1.56923e-05
-3.36895e-06
1.73475e-05
-3.32512e-06
1.89941e-05
-3.30139e-06
2.06408e-05
-3.29561e-06
2.2295e-05
-3.30575e-06
2.39638e-05
-3.32996e-06
2.56532e-05
-3.36657e-06
2.73683e-05
-3.41407e-06
2.9114e-05
-3.47106e-06
3.08938e-05
-3.53606e-06
3.27107e-05
-3.60749e-06
3.45667e-05
-3.68347e-06
3.64626e-05
-3.76176e-06
3.83975e-05
-3.83965e-06
4.03691e-05
-3.91374e-06
4.23727e-05
-3.97981e-06
4.44008e-05
-4.03248e-06
4.64427e-05
-4.06493e-06
4.84833e-05
-4.0686e-06
5.05023e-05
-4.03281e-06
5.24726e-05
-3.94418e-06
5.4359e-05
-3.78566e-06
5.61151e-05
-3.53525e-06
5.76809e-05
-3.16358e-06
5.8977e-05
-2.6311e-06
5.99049e-05
-1.88017e-06
6.03669e-05
-8.37489e-07
6.03207e-05
6.41682e-07
5.97289e-05
2.77924e-06
5.82998e-05
5.90834e-06
5.54249e-05
1.04602e-05
4.99202e-05
1.66242e-05
4.03962e-05
2.32116e-05
2.70584e-05
2.7044e-05
1.29453e-05
2.4904e-05
2.45352e-06
1.5419e-05
-5.57748e-06
8.81307e-07
-2.40967e-07
2.30478e-06
-3.78399e-06
3.98342e-06
-5.23545e-06
5.75165e-06
-5.64158e-06
7.52975e-06
-5.64621e-06
9.28437e-06
-5.51485e-06
1.10045e-05
-5.35599e-06
1.26909e-05
-5.21076e-06
1.43492e-05
-5.09334e-06
1.59875e-05
-5.00726e-06
1.76142e-05
-4.95176e-06
1.92374e-05
-4.92458e-06
2.08647e-05
-4.92301e-06
2.25034e-05
-4.94436e-06
2.41595e-05
-4.98608e-06
2.58387e-05
-5.04577e-06
2.75458e-05
-5.1212e-06
2.92849e-05
-5.21018e-06
3.10593e-05
-5.31042e-06
3.28712e-05
-5.41939e-06
3.47219e-05
-5.53417e-06
3.66114e-05
-5.65126e-06
3.85382e-05
-5.76643e-06
4.04989e-05
-5.87446e-06
4.2488e-05
-5.96888e-06
4.4497e-05
-6.04156e-06
4.65144e-05
-6.08231e-06
4.85243e-05
-6.07842e-06
5.05055e-05
-6.01407e-06
5.24308e-05
-5.86945e-06
5.42646e-05
-5.61947e-06
5.59612e-05
-5.23186e-06
5.74619e-05
-4.66428e-06
5.86914e-05
-3.86056e-06
5.95557e-05
-2.74446e-06
5.99328e-05
-1.21457e-06
5.97032e-05
8.71228e-07
5.87579e-05
3.72461e-06
5.70161e-05
7.65014e-06
5.44333e-05
1.30429e-05
5.08207e-05
2.02368e-05
4.52757e-05
2.87565e-05
3.63765e-05
3.59432e-05
2.40403e-05
3.72403e-05
1.07632e-05
2.86961e-05
3.38795e-06
1.29165e-06
-1.53261e-06
2.88249e-06
-5.37483e-06
4.56294e-06
-6.91591e-06
6.27638e-06
-7.35502e-06
7.98816e-06
-7.35799e-06
9.68071e-06
-7.20741e-06
1.13475e-05
-7.02276e-06
1.29891e-05
-6.85239e-06
1.46103e-05
-6.71451e-06
1.62176e-05
-6.61454e-06
1.78182e-05
-6.55243e-06
1.94195e-05
-6.52591e-06
2.10285e-05
-6.53195e-06
2.26514e-05
-6.56732e-06
2.42942e-05
-6.62883e-06
2.59618e-05
-6.71343e-06
2.76588e-05
-6.81815e-06
2.93886e-05
-6.94002e-06
3.11541e-05
-7.07589e-06
3.2957e-05
-7.22229e-06
3.4798e-05
-7.37518e-06
3.66765e-05
-7.52976e-06
3.85903e-05
-7.68025e-06
4.05355e-05
-7.81959e-06
4.25056e-05
-7.93904e-06
4.44918e-05
-8.02774e-06
4.64817e-05
-8.07219e-06
4.84589e-05
-8.05565e-06
5.04022e-05
-7.95732e-06
5.2284e-05
-7.75126e-06
5.40692e-05
-7.40472e-06
5.57132e-05
-6.87581e-06
5.71591e-05
-6.11021e-06
5.83353e-05
-5.03667e-06
5.91517e-05
-3.5609e-06
5.94958e-05
-1.55866e-06
5.92355e-05
1.13162e-06
5.82322e-05
4.72785e-06
5.63689e-05
9.51345e-06
5.36001e-05
1.58117e-05
4.9971e-05
2.38659e-05
4.53072e-05
3.34203e-05
3.85804e-05
4.267e-05
2.83718e-05
4.74489e-05
1.49319e-05
4.21359e-05
1.64956e-05
1.52221e-06
-3.05482e-06
3.27104e-06
-7.12366e-06
4.99408e-06
-8.63895e-06
6.69173e-06
-9.05267e-06
8.3661e-06
-9.03236e-06
1.00166e-05
-8.85788e-06
1.16435e-05
-8.64966e-06
1.32497e-05
-8.45859e-06
1.48401e-05
-8.30498e-06
1.64211e-05
-8.19548e-06
1.79992e-05
-8.13054e-06
1.95812e-05
-8.10789e-06
2.11734e-05
-8.12421e-06
2.27819e-05
-8.17579e-06
2.4412e-05
-8.25887e-06
2.60683e-05
-8.36975e-06
2.77548e-05
-8.50472e-06
2.94749e-05
-8.66004e-06
3.12307e-05
-8.83169e-06
3.30236e-05
-9.01519e-06
3.48538e-05
-9.20538e-06
3.67202e-05
-9.39614e-06
3.862e-05
-9.58012e-06
4.05488e-05
-9.74837e-06
4.24997e-05
-9.88992e-06
4.44632e-05
-9.99121e-06
4.64265e-05
-1.00355e-05
4.83731e-05
-1.00022e-05
5.02815e-05
-9.86577e-06
5.21247e-05
-9.5944e-06
5.38682e-05
-9.14817e-06
5.54687e-05
-8.47634e-06
5.68721e-05
-7.51358e-06
5.80105e-05
-6.17506e-06
5.87997e-05
-4.35005e-06
5.91356e-05
-1.89451e-06
5.88925e-05
1.37473e-06
5.79306e-05
5.68974e-06
5.61124e-05
1.13317e-05
5.33354e-05
1.85887e-05
4.95684e-05
2.76329e-05
4.47652e-05
3.82235e-05
3.84129e-05
4.90222e-05
2.92288e-05
5.6633e-05
1.62917e-05
5.5073e-05
3.10352e-05
1.6493e-06
-4.70412e-06
3.52432e-06
-8.99868e-06
5.30636e-06
-1.0421e-05
7.01454e-06
-1.07608e-05
8.67464e-06
-1.06925e-05
1.03006e-05
-1.04838e-05
1.19003e-05
-1.02494e-05
1.34802e-05
-1.00384e-05
1.50465e-05
-9.87131e-06
1.66059e-05
-9.75488e-06
1.8165e-05
-9.68963e-06
1.97302e-05
-9.67313e-06
2.13077e-05
-9.7017e-06
2.29031e-05
-9.77114e-06
2.45213e-05
-9.8771e-06
2.61668e-05
-1.00152e-05
2.78432e-05
-1.01811e-05
2.95534e-05
-1.03702e-05
3.12993e-05
-1.05776e-05
3.30819e-05
-1.07978e-05
3.4901e-05
-1.10245e-05
3.6755e-05
-1.12502e-05
3.86408e-05
-1.14659e-05
4.05534e-05
-1.16609e-05
4.24855e-05
-1.1822e-05
4.44273e-05
-1.1933e-05
4.63658e-05
-1.1974e-05
4.82842e-05
-1.19207e-05
5.01615e-05
-1.1743e-05
5.19709e-05
-1.14038e-05
5.36793e-05
-1.08565e-05
5.52452e-05
-1.00422e-05
5.66175e-05
-8.88582e-06
5.77327e-05
-7.2903e-06
5.8513e-05
-5.13026e-06
5.88625e-05
-2.24395e-06
5.86648e-05
1.57242e-06
5.77847e-05
6.56987e-06
5.60746e-05
1.30417e-05
5.33895e-05
2.12738e-05
4.9603e-05
3.14193e-05
4.45834e-05
4.32431e-05
3.79927e-05
5.56129e-05
2.8969e-05
6.56567e-05
1.63693e-05
6.76727e-05
4.77239e-05
1.71758e-06
-6.4217e-06
3.68602e-06
-1.09671e-05
5.52816e-06
-1.22631e-05
7.26113e-06
-1.24938e-05
8.92292e-06
-1.23542e-05
1.05381e-05
-1.2099e-05
1.21213e-05
-1.18326e-05
1.36829e-05
-1.16e-05
1.52311e-05
-1.14196e-05
1.67735e-05
-1.12973e-05
1.8317e-05
-1.12331e-05
1.9868e-05
-1.12242e-05
2.14326e-05
-1.12663e-05
2.30162e-05
-1.13547e-05
2.46236e-05
-1.14845e-05
2.62589e-05
-1.16505e-05
2.79255e-05
-1.18478e-05
2.96261e-05
-1.20708e-05
3.13622e-05
-1.23137e-05
3.31345e-05
-1.25701e-05
3.49424e-05
-1.28324e-05
3.67841e-05
-1.30918e-05
3.8656e-05
-1.33379e-05
4.05529e-05
-1.35578e-05
4.2467e-05
-1.37362e-05
4.43883e-05
-1.38543e-05
4.63038e-05
-1.38895e-05
4.81968e-05
-1.38136e-05
5.00464e-05
-1.35926e-05
5.18268e-05
-1.31842e-05
5.35062e-05
-1.25359e-05
5.50455e-05
-1.15815e-05
5.6397e-05
-1.02372e-05
5.75022e-05
-8.39545e-06
5.82898e-05
-5.9178e-06
5.86725e-05
-2.62669e-06
5.85436e-05
1.70135e-06
5.77737e-05
7.33981e-06
5.62091e-05
1.46064e-05
5.36717e-05
2.38111e-05
4.99586e-05
3.51324e-05
4.48292e-05
4.83723e-05
3.79385e-05
6.25035e-05
2.86922e-05
7.4903e-05
1.62059e-05
8.01591e-05
6.74193e-05
1.7522e-06
-8.1739e-06
3.78803e-06
-1.30029e-05
5.68405e-06
-1.41592e-05
7.44719e-06
-1.42569e-05
9.12003e-06
-1.40271e-05
1.07339e-05
-1.37128e-05
1.23088e-05
-1.34076e-05
1.38588e-05
-1.315e-05
1.53942e-05
-1.29549e-05
1.69236e-05
-1.28267e-05
1.84545e-05
-1.27641e-05
1.99938e-05
-1.27634e-05
2.15473e-05
-1.28198e-05
2.31205e-05
-1.29279e-05
2.4718e-05
-1.3082e-05
2.63438e-05
-1.32764e-05
2.80011e-05
-1.35051e-05
2.96923e-05
-1.37619e-05
3.14188e-05
-1.40402e-05
3.31809e-05
-1.43322e-05
3.49779e-05
-1.46294e-05
3.68076e-05
-1.49215e-05
3.8666e-05
-1.51963e-05
4.05477e-05
-1.54394e-05
4.24448e-05
-1.56333e-05
4.43471e-05
-1.57566e-05
4.62414e-05
-1.57838e-05
4.81114e-05
-1.56836e-05
4.99367e-05
-1.54179e-05
5.16925e-05
-1.494e-05
5.33486e-05
-1.4192e-05
5.48686e-05
-1.31015e-05
5.62084e-05
-1.1577e-05
5.73149e-05
-9.50197e-06
5.81241e-05
-6.7269e-06
5.85575e-05
-3.06006e-06
5.85179e-05
1.74092e-06
5.78829e-05
7.97479e-06
5.64951e-05
1.59942e-05
5.41497e-05
2.61563e-05
5.05804e-05
3.87017e-05
4.5448e-05
5.34985e-05
3.83471e-05
6.96013e-05
2.87882e-05
8.4462e-05
1.61771e-05
9.27701e-05
8.35964e-05
1.76849e-06
-9.9424e-06
3.85249e-06
-1.50869e-05
5.79338e-06
-1.61e-05
7.58628e-06
-1.60499e-05
9.27435e-06
-1.57152e-05
1.08926e-05
-1.53311e-05
1.24651e-05
-1.49801e-05
1.40085e-05
-1.46934e-05
1.55352e-05
-1.44817e-05
1.70551e-05
-1.43466e-05
1.85764e-05
-1.42853e-05
2.0106e-05
-1.4293e-05
2.16501e-05
-1.4364e-05
2.32142e-05
-1.4492e-05
2.48028e-05
-1.46706e-05
2.64199e-05
-1.48934e-05
2.80684e-05
-1.51536e-05
2.97507e-05
-1.54442e-05
3.14678e-05
-1.57573e-05
3.32201e-05
-1.60845e-05
3.50064e-05
-1.64157e-05
3.68243e-05
-1.67394e-05
3.86698e-05
-1.70418e-05
4.05371e-05
-1.73067e-05
4.24182e-05
-1.75143e-05
4.43027e-05
-1.76412e-05
4.61777e-05
-1.76588e-05
4.80272e-05
-1.7533e-05
4.98313e-05
-1.72221e-05
5.15666e-05
-1.66753e-05
5.32046e-05
-1.583e-05
5.47116e-05
-1.46085e-05
5.60476e-05
-1.2913e-05
5.71652e-05
-1.06196e-05
5.80079e-05
-7.5695e-06
5.85064e-05
-3.5586e-06
5.85738e-05
1.67351e-06
5.80955e-05
8.45312e-06
5.69127e-05
1.7177e-05
5.47994e-05
2.82696e-05
5.14285e-05
4.20654e-05
4.63843e-05
5.85399e-05
3.91757e-05
7.6806e-05
2.93319e-05
9.43057e-05
1.64352e-05
0.000105667
0.000100032
1.77611e-06
-1.17185e-05
3.89405e-06
-1.72049e-05
5.87008e-06
-1.80761e-05
7.68904e-06
-1.78688e-05
9.39287e-06
-1.7419e-05
1.10183e-05
-1.69565e-05
1.25919e-05
-1.65537e-05
1.41324e-05
-1.62339e-05
1.56538e-05
-1.60031e-05
1.7167e-05
-1.58598e-05
1.86808e-05
-1.57991e-05
2.02027e-05
-1.58149e-05
2.1739e-05
-1.59003e-05
2.32952e-05
-1.60482e-05
2.48759e-05
-1.62513e-05
2.64849e-05
-1.65024e-05
2.81253e-05
-1.67939e-05
2.9799e-05
-1.71179e-05
3.15072e-05
-1.74656e-05
3.325e-05
-1.78272e-05
3.5026e-05
-1.81918e-05
3.68327e-05
-1.85461e-05
3.86658e-05
-1.8875e-05
4.05194e-05
-1.91603e-05
4.23855e-05
-1.93804e-05
4.42537e-05
-1.95094e-05
4.61113e-05
-1.95164e-05
4.79425e-05
-1.93642e-05
4.97285e-05
-1.90081e-05
5.14468e-05
-1.83936e-05
5.30711e-05
-1.74543e-05
5.45705e-05
-1.61079e-05
5.59093e-05
-1.42518e-05
5.7046e-05
-1.17563e-05
5.79315e-05
-8.45504e-06
5.85066e-05
-4.13365e-06
5.86948e-05
1.48534e-06
5.83905e-05
8.75739e-06
5.74364e-05
1.8131e-05
5.55896e-05
3.01164e-05
5.24772e-05
4.51761e-05
4.75884e-05
6.34272e-05
4.03577e-05
8.40353e-05
3.02784e-05
0.00010438
1.69919e-05
0.000118953
0.000117023
1.78071e-06
-1.34992e-05
3.92157e-06
-1.93457e-05
5.92329e-06
-2.00778e-05
7.76294e-06
-1.97085e-05
9.4808e-06
-1.91369e-05
1.11141e-05
-1.85899e-05
1.26907e-05
-1.81302e-05
1.42306e-05
-1.77738e-05
1.57491e-05
-1.75216e-05
1.72578e-05
-1.73685e-05
1.87662e-05
-1.73075e-05
2.0282e-05
-1.73307e-05
2.18118e-05
-1.74301e-05
2.33612e-05
-1.75976e-05
2.49348e-05
-1.78249e-05
2.65365e-05
-1.81041e-05
2.81692e-05
-1.84266e-05
2.98349e-05
-1.87836e-05
3.15346e-05
-1.91653e-05
3.32683e-05
-1.95609e-05
3.50345e-05
-1.99579e-05
3.68304e-05
-2.03421e-05
3.86518e-05
-2.06964e-05
4.04926e-05
-2.10011e-05
4.23448e-05
-2.12325e-05
4.4198e-05
-2.13626e-05
4.60398e-05
-2.13582e-05
4.7855e-05
-2.11794e-05
4.96254e-05
-2.07785e-05
5.133e-05
-2.00982e-05
5.29444e-05
-1.90687e-05
5.44407e-05
-1.76043e-05
5.57875e-05
-1.55986e-05
5.6949e-05
-1.29178e-05
5.78842e-05
-9.39019e-06
5.85434e-05
-4.79285e-06
5.88613e-05
1.16746e-06
5.87423e-05
8.87634e-06
5.80328e-05
1.88405e-05
5.64768e-05
3.16724e-05
5.36593e-05
4.79937e-05
4.89833e-05
6.81045e-05
4.17985e-05
9.12187e-05
3.1544e-05
0.000114633
1.78212e-05
0.000132671
0.000134845
1.78491e-06
-1.52841e-05
3.93966e-06
-2.15005e-05
5.95832e-06
-2.20964e-05
7.81274e-06
-2.15629e-05
9.54165e-06
-2.08658e-05
1.11821e-05
-2.02303e-05
1.27622e-05
-1.97103e-05
1.4303e-05
-1.93146e-05
1.58201e-05
-1.90387e-05
1.7326e-05
-1.88744e-05
1.88304e-05
-1.88119e-05
2.03415e-05
-1.88418e-05
2.1866e-05
-1.89546e-05
2.34095e-05
-1.91411e-05
2.49769e-05
-1.93923e-05
2.6572e-05
-1.96992e-05
2.81976e-05
-2.00523e-05
2.98558e-05
-2.04418e-05
3.15475e-05
-2.0857e-05
3.32725e-05
-2.12858e-05
3.50293e-05
-2.17147e-05
3.6815e-05
-2.21278e-05
3.86254e-05
-2.25068e-05
4.04542e-05
-2.28299e-05
4.22935e-05
-2.30718e-05
4.41331e-05
-2.32022e-05
4.59607e-05
-2.31858e-05
4.77617e-05
-2.29804e-05
4.95189e-05
-2.25357e-05
5.12125e-05
-2.17918e-05
5.28201e-05
-2.06763e-05
5.43169e-05
-1.9101e-05
5.56753e-05
-1.6957e-05
5.68654e-05
-1.41079e-05
5.78539e-05
-1.03787e-05
5.86007e-05
-5.53965e-06
5.90514e-05
7.16722e-07
5.91208e-05
8.80701e-06
5.86597e-05
1.93016e-05
5.74022e-05
3.293e-05
5.48938e-05
5.05021e-05
5.04599e-05
7.25384e-05
4.33722e-05
9.83105e-05
3.30203e-05
0.000124984
1.88846e-05
0.000146808
0.000153731
1.78925e-06
-1.70734e-05
3.95014e-06
-2.36614e-05
5.97783e-06
-2.41241e-05
7.84108e-06
-2.34261e-05
9.57748e-06
-2.26022e-05
1.12235e-05
-2.18763e-05
1.2807e-05
-2.12938e-05
1.43491e-05
-2.08567e-05
1.58659e-05
-2.05556e-05
1.73701e-05
-2.03785e-05
1.88717e-05
-2.03135e-05
2.03791e-05
-2.03492e-05
2.18992e-05
-2.04747e-05
2.34378e-05
-2.06797e-05
2.49997e-05
-2.09542e-05
2.65887e-05
-2.12882e-05
2.82078e-05
-2.16714e-05
2.98589e-05
-2.20929e-05
3.1543e-05
-2.2541e-05
3.32597e-05
-2.30026e-05
3.50076e-05
-2.34626e-05
3.67838e-05
-2.3904e-05
3.85837e-05
-2.43067e-05
4.04014e-05
-2.46475e-05
4.22287e-05
-2.48991e-05
4.40559e-05
-2.50294e-05
4.58709e-05
-2.50008e-05
4.76595e-05
-2.4769e-05
4.94055e-05
-2.42817e-05
5.10903e-05
-2.34766e-05
5.26935e-05
-2.22795e-05
5.41928e-05
-2.06004e-05
5.5565e-05
-1.83292e-05
5.67853e-05
-1.53283e-05
5.78277e-05
-1.1421e-05
5.86609e-05
-6.37293e-06
5.92409e-05
1.36737e-07
5.94912e-05
8.55667e-06
5.92664e-05
1.95265e-05
5.82899e-05
3.39065e-05
5.60703e-05
5.27217e-05
5.18664e-05
7.67422e-05
4.49075e-05
0.000105271
3.45621e-05
0.00013534
2.01411e-05
0.000161242
0.000173873
1.79346e-06
-1.88668e-05
3.95342e-06
-2.58213e-05
5.98288e-06
-2.61536e-05
7.84925e-06
-2.52925e-05
9.5894e-06
-2.43423e-05
1.12389e-05
-2.35257e-05
1.28249e-05
-2.28799e-05
1.43684e-05
-2.24002e-05
1.58853e-05
-2.20726e-05
1.73885e-05
-2.18817e-05
1.88881e-05
-2.18131e-05
2.03926e-05
-2.18537e-05
2.19091e-05
-2.19912e-05
2.34434e-05
-2.2214e-05
2.50003e-05
-2.25112e-05
2.65839e-05
-2.28717e-05
2.81969e-05
-2.32844e-05
2.98414e-05
-2.37374e-05
3.15182e-05
-2.42179e-05
3.32271e-05
-2.47115e-05
3.49666e-05
-2.52021e-05
3.67336e-05
-2.5671e-05
3.85238e-05
-2.60969e-05
4.0331e-05
-2.64548e-05
4.21474e-05
-2.67155e-05
4.39632e-05
-2.68452e-05
4.57668e-05
-2.68044e-05
4.75446e-05
-2.65467e-05
4.92809e-05
-2.6018e-05
5.09586e-05
-2.51543e-05
5.25588e-05
-2.38798e-05
5.40622e-05
-2.21037e-05
5.54486e-05
-1.97156e-05
5.66984e-05
-1.65781e-05
5.77918e-05
-1.25144e-05
5.87056e-05
-7.28672e-06
5.9404e-05
-5.61663e-07
5.98166e-05
8.14411e-06
5.97955e-05
1.95476e-05
5.90471e-05
3.46548e-05
5.704e-05
5.47288e-05
5.29846e-05
8.07975e-05
4.61474e-05
0.000112109
3.59673e-05
0.000145524
2.15444e-05
0.000175667
0.000195418
1.7977e-06
-2.06646e-05
3.94919e-06
-2.79728e-05
5.97369e-06
-2.81781e-05
7.83777e-06
-2.71566e-05
9.57791e-06
-2.60825e-05
1.12285e-05
-2.51763e-05
1.28159e-05
-2.44672e-05
1.43602e-05
-2.39445e-05
1.58773e-05
-2.35896e-05
1.73798e-05
-2.33841e-05
1.88778e-05
-2.33112e-05
2.038e-05
-2.33559e-05
2.18933e-05
-2.35045e-05
2.34238e-05
-2.37445e-05
2.49763e-05
-2.40637e-05
2.65547e-05
-2.44502e-05
2.8162e-05
-2.48918e-05
2.98003e-05
-2.53756e-05
3.14702e-05
-2.58878e-05
3.31717e-05
-2.64129e-05
3.49031e-05
-2.69334e-05
3.66614e-05
-2.74294e-05
3.84424e-05
-2.78779e-05
4.02399e-05
-2.82522e-05
4.20461e-05
-2.85217e-05
4.38515e-05
-2.86507e-05
4.56448e-05
-2.85977e-05
4.74128e-05
-2.83147e-05
4.91407e-05
-2.77459e-05
5.08123e-05
-2.68259e-05
5.24104e-05
-2.54779e-05
5.39178e-05
-2.3611e-05
5.53174e-05
-2.11153e-05
5.65938e-05
-1.78545e-05
5.77323e-05
-1.36528e-05
5.87157e-05
-8.27013e-06
5.95143e-05
-1.36031e-06
6.00592e-05
7.59929e-06
6.01893e-05
1.94174e-05
5.95721e-05
3.5272e-05
5.76091e-05
5.66919e-05
5.34795e-05
8.49271e-05
4.66826e-05
0.000118905
3.69279e-05
0.000155278
2.30443e-05
0.000189551
0.000218462
1.80005e-06
-2.24646e-05
3.93728e-06
-3.01101e-05
5.95012e-06
-3.01909e-05
7.80684e-06
-2.90133e-05
9.54326e-06
-2.78189e-05
1.11925e-05
-2.68256e-05
1.27796e-05
-2.60543e-05
1.4324e-05
-2.54888e-05
1.58408e-05
-2.51065e-05
1.73425e-05
-2.48858e-05
1.88391e-05
-2.48078e-05
2.03391e-05
-2.48559e-05
2.18497e-05
-2.5015e-05
2.33766e-05
-2.52714e-05
2.49249e-05
-2.5612e-05
2.64985e-05
-2.60237e-05
2.81004e-05
-2.64936e-05
2.97325e-05
-2.70078e-05
3.13959e-05
-2.75512e-05
3.30901e-05
-2.81072e-05
3.48138e-05
-2.86571e-05
3.65639e-05
-2.91796e-05
3.83361e-05
-2.96501e-05
4.01245e-05
-3.00405e-05
4.19212e-05
-3.03185e-05
4.3717e-05
-3.04465e-05
4.55009e-05
-3.03815e-05
4.726e-05
-3.00739e-05
4.89802e-05
-2.94661e-05
5.06462e-05
-2.84919e-05
5.22422e-05
-2.70739e-05
5.37526e-05
-2.51214e-05
5.51629e-05
-2.25257e-05
5.64608e-05
-1.91524e-05
5.76352e-05
-1.48271e-05
5.86727e-05
-9.30762e-06
5.95465e-05
-2.23414e-06
6.01835e-05
6.96223e-06
6.03949e-05
1.92061e-05
5.97663e-05
3.59006e-05
5.75384e-05
5.89198e-05
5.28035e-05
8.9662e-05
4.58005e-05
0.000125908
3.68955e-05
0.000164183
2.46074e-05
0.000201839
0.00024307
-1.32747e-39
1.13765e-40
-1.4968e-38
1.11275e-39
-6.7428e-38
8.34653e-39
-4.27091e-38
7.03868e-39
-1.09295e-38
-1.93084e-41
-9.10054e-40
-1.4303e-39
-1.68833e-41
-2.01746e-40
-6.49688e-44
-4.53213e-42
-1.84643e-47
-1.94701e-44
-5.59387e-49
-5.52585e-48
-3.47884e-49
-2.65254e-49
-1.76011e-49
-1.23873e-49
-4.34424e-50
-1.08647e-49
-3.28031e-51
-5.49955e-50
-5.24878e-53
-7.95555e-51
2.16661e-55
-2.13376e-52
3.12284e-56
-2.20477e-54
2.16763e-57
-4.67558e-56
1.25537e-58
-1.51005e-57
5.41413e-60
-4.64989e-59
1.90255e-61
-1.19036e-60
5.92647e-63
-2.47773e-62
1.67146e-64
-3.72491e-64
4.24282e-66
-9.47879e-67
9.64354e-68
4.19653e-68
1.94072e-69
2.00126e-69
3.42609e-71
6.12926e-71
5.22904e-73
1.47809e-72
6.75945e-75
2.94377e-74
7.18635e-77
4.88763e-76
6.01016e-79
6.71745e-78
3.67478e-81
7.46482e-80
1.41936e-83
6.43652e-82
2.15024e-86
4.00386e-84
-3.24876e-89
1.56277e-86
-6.90422e-92
2.96376e-89
-7.3448e-93
5.0442e-93
-7.68762e-93
-5.54635e-38
1.5037e-38
-2.62549e-36
1.03255e-36
-7.32718e-36
4.2847e-36
-7.58554e-36
2.80505e-36
-3.03375e-36
-1.45166e-38
-2.48784e-37
-5.66462e-37
-4.10399e-39
-6.76525e-38
-1.84331e-41
-1.38324e-39
-1.07321e-44
-7.51545e-42
-5.81203e-47
-5.27852e-45
-3.15589e-47
-4.90288e-47
-1.93081e-47
-4.34924e-47
-6.84271e-48
-3.40317e-47
-5.38626e-49
-9.34656e-48
-6.1768e-51
-7.68104e-49
7.11649e-53
-1.89645e-50
3.5464e-54
-2.79708e-52
2.30429e-55
-6.57976e-54
1.31195e-56
-1.99284e-55
5.4148e-58
-5.64836e-57
1.81652e-59
-1.35219e-58
5.44091e-61
-2.65264e-60
1.48355e-62
-3.75476e-62
3.64934e-64
-7.9613e-65
8.02893e-66
1.37684e-65
1.56674e-67
6.13772e-67
2.68581e-69
1.79926e-68
3.98762e-71
4.16694e-70
5.02801e-73
7.97459e-72
5.2387e-75
1.27188e-73
4.33272e-77
1.67557e-75
2.67361e-79
1.77896e-77
1.10537e-81
1.45641e-79
2.43828e-84
8.50218e-82
1.09452e-87
3.03826e-84
-1.03175e-90
4.67009e-87
-4.35596e-93
7.68818e-91
-2.79722e-92
-6.33957e-36
2.48849e-36
-3.38151e-34
1.89405e-34
-9.95789e-34
8.39194e-34
-9.83994e-34
5.62889e-34
-3.23576e-34
-5.43535e-36
-2.18005e-35
-8.14981e-35
-3.39746e-37
-8.1157e-36
-1.97196e-39
-1.58507e-37
-3.0503e-42
-1.151e-39
-2.49125e-44
-2.88495e-42
-6.23621e-45
-3.93149e-44
-2.09936e-45
-1.02609e-44
-3.12107e-46
-2.81651e-45
-1.43034e-47
-4.44934e-46
-1.57436e-49
-2.91053e-47
1.86714e-51
-7.53323e-49
1.44626e-52
-1.36961e-50
8.56503e-54
-3.28037e-52
4.1803e-55
-9.08135e-54
1.57688e-56
-2.33929e-55
4.99225e-58
-5.17737e-57
1.4159e-59
-9.48218e-59
3.64474e-61
-1.25247e-60
8.46651e-63
-2.54107e-63
1.76277e-64
4.66453e-64
3.26109e-66
1.95658e-65
5.3104e-68
5.39934e-67
7.50804e-70
1.17869e-68
9.04451e-72
2.12843e-70
9.04494e-74
3.20487e-72
7.23208e-76
3.98512e-74
4.36821e-78
3.98811e-76
1.81292e-80
3.06299e-78
4.3031e-83
1.65197e-80
3.82248e-86
5.16151e-83
2.45284e-90
6.01156e-86
-6.4841e-92
5.00328e-90
-2.03726e-90
-5.04096e-34
2.56218e-34
-2.77311e-32
2.00645e-32
-8.41372e-32
9.02037e-32
-7.9041e-32
6.08778e-32
-2.16956e-32
-1.29057e-33
-1.23697e-33
-6.78323e-33
-1.91105e-35
-5.76208e-34
-1.42784e-37
-1.13117e-35
-6.15989e-40
-1.03468e-37
-7.78711e-42
-6.20098e-40
-7.36822e-43
-1.00177e-41
-9.24418e-44
-1.00436e-42
-8.257e-45
-1.45294e-43
-3.21759e-46
-1.55637e-44
-3.86002e-48
-8.33752e-46
3.3742e-50
-2.12291e-47
3.3296e-51
-4.15874e-49
1.82041e-52
-9.72198e-51
7.97872e-54
-2.45926e-52
2.77628e-55
-5.77135e-54
8.24237e-57
-1.17977e-55
2.19657e-58
-2.01399e-57
5.30795e-60
-2.49575e-59
1.15822e-61
-5.49391e-62
2.26938e-63
8.28769e-63
3.95863e-65
3.28604e-64
6.08973e-67
8.52185e-66
8.15078e-69
1.74748e-67
9.31783e-71
2.96446e-69
8.86853e-73
4.19237e-71
6.77154e-75
4.88839e-73
3.91778e-77
4.56667e-75
1.55191e-79
3.23307e-77
3.52412e-82
1.54795e-79
3.41753e-85
4.19246e-82
8.08595e-89
4.09514e-85
1.64628e-90
7.34988e-89
-5.30824e-89
-3.23291e-32
2.0197e-32
-1.71213e-30
1.51495e-30
-5.22561e-30
6.64601e-30
-4.57715e-30
4.41916e-30
-1.04302e-30
-1.70081e-31
-5.22561e-32
-3.80385e-31
-8.36018e-34
-2.87524e-32
-7.57586e-36
-5.97199e-34
-5.63103e-38
-6.63429e-36
-7.9579e-40
-6.07862e-38
-4.05369e-41
-1.02206e-39
-3.2394e-42
-6.13678e-41
-2.02721e-43
-5.95213e-42
-6.26121e-45
-4.57213e-43
-7.39532e-47
-1.93817e-44
4.4157e-49
-4.6228e-46
5.78229e-50
-9.31483e-48
2.95537e-51
-2.10124e-49
1.16908e-52
-4.88068e-51
3.75378e-54
-1.04849e-52
1.04272e-55
-1.98293e-54
2.60457e-57
-3.15679e-56
5.8967e-59
-3.67864e-58
1.20657e-60
-8.9255e-61
2.22063e-62
1.04951e-61
3.64452e-64
3.94522e-63
5.28261e-66
9.61414e-65
6.67089e-68
1.84947e-66
7.20247e-70
2.94048e-68
6.47599e-72
3.89007e-70
4.66011e-74
4.22393e-72
2.51278e-76
3.63562e-74
9.19417e-79
2.31193e-76
2.00857e-81
9.95424e-79
1.96975e-84
2.4226e-81
7.10644e-88
2.16107e-84
7.32366e-89
1.0104e-87
-6.17165e-88
-1.76904e-30
1.31725e-30
-8.53366e-29
8.90988e-29
-2.5633e-28
3.69432e-28
-2.04715e-28
2.36737e-28
-3.94124e-29
-1.36401e-29
-1.81725e-30
-1.61289e-29
-3.0983e-32
-1.14875e-30
-3.33781e-34
-2.62572e-32
-3.25455e-36
-3.5524e-34
-4.79446e-38
-4.24921e-36
-1.7164e-39
-7.53153e-38
-9.41246e-41
-3.10626e-39
-4.23149e-42
-2.00936e-40
-1.04833e-43
-1.10498e-41
-1.17597e-45
-3.78157e-43
5.85798e-48
-8.52719e-45
8.63341e-49
-1.72767e-46
4.08708e-50
-3.72256e-48
1.46822e-51
-7.96777e-50
4.35631e-53
-1.57481e-51
1.13044e-54
-2.76306e-53
2.64285e-56
-4.10676e-55
5.60132e-58
-4.50178e-57
1.07402e-59
-1.16398e-59
1.85476e-61
1.08943e-60
2.85933e-63
3.88205e-62
3.89517e-65
8.88204e-64
4.62241e-67
1.59985e-65
4.6832e-69
2.37516e-67
3.9317e-71
2.91957e-69
2.61576e-73
2.91533e-71
1.29944e-75
2.27729e-73
4.43298e-78
1.31198e-75
9.13406e-81
5.1215e-78
9.0772e-84
1.12284e-80
5.99817e-87
1.15104e-83
1.11043e-87
1.14064e-86
-3.8748e-87
-8.25511e-29
7.15491e-29
-3.51906e-27
4.20718e-27
-1.03283e-26
1.62279e-26
-7.57968e-27
9.85689e-27
-1.31384e-27
-8.09631e-28
-5.76679e-29
-6.33237e-28
-1.03914e-30
-4.36088e-29
-1.30209e-32
-1.06856e-30
-1.54327e-34
-1.7029e-32
-2.39184e-36
-2.48393e-34
-6.34425e-38
-4.59781e-36
-2.34968e-39
-1.38268e-37
-7.58742e-41
-5.86477e-39
-1.53369e-42
-2.31185e-40
-1.59083e-44
-6.57997e-42
9.7299e-47
-1.41744e-43
1.21103e-47
-2.83616e-45
5.19902e-49
-5.7921e-47
1.69768e-50
-1.14724e-48
4.65884e-52
-2.09814e-50
1.12855e-53
-3.427e-52
2.46787e-55
-4.76302e-54
4.89486e-57
-4.90904e-56
8.79039e-59
-1.29353e-58
1.42273e-60
1.01178e-59
2.05554e-62
3.40642e-61
2.62141e-64
7.29905e-63
2.90358e-66
1.22601e-64
2.72572e-68
1.68738e-66
2.10164e-70
1.90143e-68
1.28065e-72
1.73099e-70
5.79158e-75
1.21543e-72
1.85016e-77
6.37163e-75
3.69603e-80
2.29965e-77
4.17361e-83
4.9196e-80
5.00281e-86
6.81477e-83
1.06961e-86
1.08895e-85
-1.00729e-86
-3.065e-27
3.02313e-27
-1.20665e-25
1.58378e-25
-3.66447e-25
5.89962e-25
-2.65341e-25
3.44344e-25
-4.50775e-26
-4.99077e-26
-1.84048e-27
-2.98706e-26
-3.25114e-29
-1.85002e-27
-4.42819e-31
-4.21853e-29
-5.96025e-33
-7.05683e-31
-9.42836e-35
-1.14929e-32
-1.97585e-36
-2.1491e-34
-5.09864e-38
-5.1405e-36
-1.20965e-39
-1.51702e-37
-2.02925e-41
-4.41819e-39
-1.8446e-43
-1.07121e-40
1.88463e-45
-2.20121e-42
1.65348e-46
-4.28459e-44
6.3258e-48
-8.25954e-46
1.88095e-49
-1.52153e-47
4.78098e-51
-2.59016e-49
1.08128e-52
-3.95397e-51
2.21234e-54
-5.14922e-53
4.10835e-56
-4.98548e-55
6.90947e-58
-1.27913e-57
1.0468e-59
8.85411e-59
1.41296e-61
2.80054e-60
1.67585e-63
5.59622e-62
1.71492e-65
8.70242e-64
1.48123e-67
1.10118e-65
1.04474e-69
1.13503e-67
5.7697e-72
9.37897e-70
2.43707e-74
5.98683e-72
7.75179e-77
3.00397e-74
1.61123e-79
1.03963e-76
2.51523e-82
2.64134e-79
3.87344e-85
4.57653e-82
8.03496e-86
9.21467e-85
7.37221e-86
-8.5715e-26
9.34357e-26
-3.60251e-24
4.85148e-24
-1.28717e-23
1.93541e-23
-9.98055e-24
1.13301e-23
-1.66431e-24
-3.71153e-24
-5.76358e-26
-1.60011e-24
-8.93964e-28
-7.79654e-26
-1.20858e-29
-1.44657e-27
-1.71862e-31
-2.26234e-29
-2.70288e-33
-3.783e-31
-4.82821e-35
-7.00208e-33
-9.46233e-37
-1.45434e-34
-1.73293e-38
-3.34799e-36
-2.43021e-40
-7.75221e-38
-1.73281e-42
-1.64791e-39
3.59541e-44
-3.20685e-41
2.21085e-45
-6.01047e-43
7.47973e-47
-1.09437e-44
2.03132e-48
-1.88866e-46
4.79461e-50
-3.01413e-48
1.01415e-51
-4.32237e-50
1.9448e-53
-5.29106e-52
3.38614e-55
-4.81085e-54
5.3354e-57
-1.14544e-56
7.55421e-59
7.50754e-58
9.48602e-61
2.21334e-59
1.04211e-62
4.10485e-61
9.80962e-65
5.8975e-63
7.70252e-67
6.83236e-65
5.04798e-69
6.43321e-67
2.78476e-71
5.07144e-69
1.17522e-73
3.22742e-71
3.66561e-76
1.53175e-73
9.4014e-79
5.86804e-76
1.76329e-81
1.70784e-78
2.90669e-84
3.45154e-81
5.25516e-85
7.32466e-84
1.35457e-84
-2.08654e-24
2.37461e-24
-1.03187e-22
1.33821e-22
-4.43954e-22
5.99782e-22
-3.49092e-22
3.42191e-22
-4.98369e-23
-2.09138e-22
-1.36371e-24
-5.70673e-23
-1.82414e-26
-2.05519e-24
-2.38716e-28
-3.30963e-26
-3.44968e-30
-5.00274e-28
-5.34528e-32
-8.35153e-30
-8.66118e-34
-1.52304e-31
-1.42207e-35
-2.9451e-33
-2.15286e-37
-5.91803e-35
-2.52721e-39
-1.18972e-36
-1.02995e-41
-2.30207e-38
6.14213e-43
-4.24483e-40
2.82284e-44
-7.65531e-42
8.48936e-46
-1.32482e-43
2.12081e-47
-2.16403e-45
4.67281e-49
-3.2683e-47
9.28307e-51
-4.43582e-49
1.67495e-52
-5.13145e-51
2.74275e-54
-4.38412e-53
4.05537e-56
-9.17499e-56
5.37154e-58
6.20349e-57
6.27985e-60
1.69711e-58
6.36684e-62
2.91909e-60
5.60764e-64
3.88154e-62
4.35886e-66
4.30482e-64
2.85183e-68
4.02797e-66
1.47823e-70
3.03526e-68
6.32785e-73
1.85149e-70
2.27881e-75
9.54054e-73
6.23107e-78
3.89202e-75
1.26343e-80
1.19745e-77
2.15931e-83
2.71836e-80
3.19697e-84
5.67574e-83
1.35294e-83
-5.57133e-23
6.26761e-23
-2.62333e-21
3.35463e-21
-1.08289e-20
1.41926e-20
-7.51067e-21
6.55205e-21
-8.16939e-22
-4.93039e-21
-1.80426e-23
-9.23033e-22
-2.30976e-25
-2.60515e-23
-3.17976e-27
-4.19787e-25
-4.755e-29
-7.25719e-27
-7.30143e-31
-1.2835e-28
-1.11823e-32
-2.30872e-30
-1.65306e-34
-4.27177e-32
-2.18278e-36
-8.04507e-34
-2.08725e-38
-1.50774e-35
2.87874e-41
-2.76125e-37
8.96511e-42
-4.91727e-39
3.30449e-43
-8.56298e-41
8.96557e-45
-1.42403e-42
2.08311e-46
-2.22933e-44
4.32091e-48
-3.22272e-46
8.12134e-50
-4.17945e-48
1.38783e-51
-4.60182e-50
2.15031e-53
-3.70883e-52
3.00374e-55
-6.32855e-55
3.74537e-57
4.96457e-56
4.13428e-59
1.26041e-57
4.08623e-61
2.06632e-59
3.60059e-63
2.70945e-61
2.69689e-65
2.94658e-63
1.65909e-67
2.5907e-65
8.96125e-70
1.925e-67
4.16974e-72
1.24781e-69
1.52536e-74
6.5189e-72
4.49623e-77
2.78744e-74
9.63353e-80
9.17247e-77
1.57707e-82
2.16652e-79
2.07471e-83
4.45309e-82
1.23185e-82
-1.40849e-21
1.5873e-21
-4.42371e-20
5.96457e-20
-1.34094e-19
1.84242e-19
-7.3733e-20
5.25582e-20
-6.49815e-21
-4.03481e-20
-1.28545e-22
-7.14357e-21
-1.74551e-24
-1.92591e-22
-2.80821e-26
-3.25861e-24
-4.64127e-28
-6.93189e-26
-7.21676e-30
-1.45713e-27
-1.06261e-31
-2.70996e-29
-1.46171e-33
-4.80813e-31
-1.71492e-35
-8.61701e-33
-1.17673e-37
-1.55285e-34
1.774e-39
-2.75083e-36
1.09328e-40
-4.81343e-38
3.41468e-42
-8.16229e-40
8.53334e-44
-1.31946e-41
1.86894e-45
-2.0043e-43
3.68936e-47
-2.80636e-45
6.62394e-49
-3.51474e-47
1.08236e-50
-3.71974e-49
1.60305e-52
-2.84557e-51
2.13632e-54
-3.46968e-54
2.56133e-56
3.8042e-55
2.79505e-58
9.20702e-57
2.75446e-60
1.48886e-58
2.3469e-62
1.91209e-60
1.68003e-64
1.97966e-62
1.06608e-66
1.72589e-64
6.09509e-69
1.33565e-66
2.86214e-71
8.7377e-69
1.07383e-73
4.67988e-71
3.21918e-76
2.01995e-73
7.19188e-79
6.96173e-76
1.11847e-81
1.67476e-78
1.38446e-82
3.41213e-81
1.05713e-81
-2.52008e-20
2.94545e-20
-4.33153e-19
6.32668e-19
-8.7814e-19
1.26844e-18
-3.55321e-19
1.44589e-19
-2.79675e-20
-1.64691e-19
-5.76681e-22
-2.87627e-20
-8.81669e-24
-9.32593e-22
-1.6535e-25
-1.94716e-23
-3.18659e-27
-4.42428e-25
-5.30536e-29