/*--------------------------------*- C++ -*----------------------------------*\
  =========                 |
  \\      /  F ield         | OpenFOAM: The Open Source CFD Toolbox
   \\    /   O peration     | Website:  https://openfoam.org
    \\  /    A nd           | Version:  7
     \\/     M anipulation  |
\*---------------------------------------------------------------------------*/
FoamFile
{
    version     2.0;
    format      ascii;
    class       volScalarField;
    location    "0.2";
    object      alpha.water;
}
// * * * * * * * * * * * * * * * * * * * * * * * * * * * * * * * * * * * * * //

dimensions      [0 0 0 0 0 0 0];

internalField   nonuniform List<scalar> 
9072
(
1
1
1
1
1
1
1
1
1
1
1
1
1
1
1
1
1
1
1
1
1
1
1
1
1
1
1
1
1
1
1
1
1
1
1
1
1
1
1
1
1
1
1
1
0.897013
0.750589
1
1
1
1
1
1
1
1
1
1
1
1
1
1
1
1
1
1
1
1
1
1
1
1
1
1
1
1
1
1
1
1
1
1
1
1
1
1
1
1
1
1
1
1
0.997775
0.81712
1
1
1
1
1
1
1
1
1
1
1
1
1
1
1
1
1
1
1
1
1
1
1
1
1
1
1
1
1
1
1
1
1
1
1
1
1
1
1
1
1
1
1
1
1
0.882056
1
1
1
1
1
1
1
1
1
1
1
1
1
1
1
1
1
1
1
1
1
1
1
1
1
1
1
1
1
1
1
1
1
1
1
1
1
1
1
1
1
1
1
1
1
0.882886
1
1
1
1
1
1
1
1
1
1
1
1
1
1
1
1
1
1
1
1
1
1
1
1
1
1
1
1
1
1
1
1
1
1
1
1
1
1
1
1
1
1
1
1
1
0.882908
1
1
1
1
1
1
1
1
1
1
1
1
1
1
1
1
1
1
1
1
1
1
1
1
1
1
1
1
1
1
1
1
1
1
1
1
1
1
1
1
1
1
1
1
1
0.883615
1
1
1
1
1
1
1
1
1
1
1
1
1
1
1
1
1
1
1
1
1
1
1
1
1
1
1
1
1
1
1
1
1
1
1
1
1
1
1
1
1
1
1
1
1
0.971465
1
1
1
1
1
1
1
1
1
1
1
1
1
1
1
1
1
1
1
1
1
1
1
1
1
1
1
1
1
1
1
1
1
1
1
1
1
1
1
1
1
0.999985
1
1
1
1
1
1
1
1
1
1
1
1
1
1
1
1
1
1
1
1
1
1
1
1
1
1
1
1
1
1
1
1
1
1
1
1
1
1
1
1
1
1
1
1
0.999963
0.999875
0.999873
1
1
1
1
1
1
1
1
1
1
1
1
1
1
1
1
1
1
1
1
1
1
1
1
1
1
1
1
1
1
1
1
1
1
1
1
1
1
1
1
1
1
1
0.999981
0.999867
0.999867
0.999888
0.999997
0.999995
1
1
1
1
1
1
1
1
1
1
1
1
1
1
1
1
1
1
1
1
1
1
1
1
1
1
1
1
1
1
1
1
1
1
1
1
1
1
1
1
1
0.999927
0.999867
0.999867
0.999991
0.999988
1
1
1
1
1
1
1
1
1
1
1
1
1
1
1
1
1
1
1
1
1
1
1
1
1
1
1
1
1
1
1
1
1
1
1
1
1
1
1
1
1
1
0.999881
0.999868
0.999871
0.99999
1
1
1
1
1
1
1
1
1
1
1
1
1
1
1
1
1
1
1
1
1
1
1
1
1
1
1
1
1
1
1
1
1
1
1
1
1
1
1
1
1
1
0.99999
0.999884
0.999907
0.999992
1
1
1
1
1
1
1
1
1
1
1
1
1
1
1
1
1
1
1
1
1
1
1
1
1
1
1
1
1
1
1
1
1
1
1
1
1
1
1
1
1
1
1
0.999989
0.999994
0.999996
1
1
1
1
1
1
1
1
1
1
1
1
1
1
1
1
1
1
1
1
1
1
1
1
1
1
1
1
1
1
1
1
1
1
1
1
1
1
1
1
1
1
1
1
0.999999
0.999999
1
1
1
1
1
1
1
1
1
1
1
1
1
1
1
1
1
1
1
1
1
1
1
1
1
1
1
1
1
1
1
1
1
1
1
1
1
1
1
1
1
1
1
1
1
0.999999
3.78734e-35
4.225e-34
4.89825e-33
9.26618e-33
3.46357e-33
6.93377e-34
5.13406e-35
1.00561e-36
4.11674e-39
5.54614e-43
1.07083e-43
9.25674e-44
5.28444e-44
1.57312e-44
1.78444e-45
6.6065e-47
1.42298e-48
4.32882e-50
1.70572e-51
6.57155e-53
2.27697e-54
7.20108e-56
2.11499e-57
5.7639e-59
1.44701e-60
3.32072e-62
6.91159e-64
1.29207e-65
2.14281e-67
3.1029e-69
3.84199e-71
3.95368e-73
3.24787e-75
2.00462e-77
8.42405e-80
2.01802e-82
1.66037e-85
2.84887e-86
9.81523e-34
1.0095e-31
6.57069e-31
9.8913e-31
7.93063e-31
2.04521e-31
1.51275e-32
2.63154e-34
1.26646e-36
3.41963e-40
8.08868e-43
6.92102e-42
7.00992e-42
2.82424e-42
3.35106e-43
1.02295e-44
1.56369e-46
4.21921e-48
1.62513e-49
6.10473e-51
2.04396e-52
6.23987e-54
1.77247e-55
4.67699e-57
1.13715e-58
2.52742e-60
5.09266e-62
9.20993e-64
1.4761e-65
2.06283e-67
2.46009e-69
2.43065e-71
1.90614e-73
1.10959e-75
4.27023e-78
8.55616e-81
5.39026e-84
2.88991e-86
1.0159e-31
1.24301e-29
8.71188e-29
1.34876e-28
9.69465e-29
2.14708e-29
1.33036e-30
2.18627e-32
1.3625e-34
1.23157e-37
8.46717e-40
1.27344e-39
5.81952e-40
1.15117e-40
8.59378e-42
2.53779e-43
5.43012e-45
1.59991e-46
5.6682e-48
1.93696e-49
6.0223e-51
1.72744e-52
4.62217e-54
1.14979e-55
2.63869e-57
5.5429e-59
1.05675e-60
1.8099e-62
2.74944e-64
3.64432e-66
4.12349e-68
3.86256e-70
2.86056e-72
1.55038e-74
5.22358e-77
7.74392e-80
1.96008e-83
1.46138e-84
7.59716e-30
9.87616e-28
7.10781e-27
1.12184e-26
7.36114e-27
1.40705e-27
7.51496e-29
1.22513e-30
9.97477e-33
4.20905e-35
7.02107e-37
1.19679e-37
2.20616e-38
2.87399e-39
1.86427e-40
5.68482e-42
1.32299e-43
3.79129e-45
1.22726e-46
3.82784e-48
1.10122e-49
2.94627e-51
7.37156e-53
1.71708e-54
3.69597e-56
7.29355e-58
1.30805e-59
2.10974e-61
3.02054e-63
3.77441e-65
4.02296e-67
3.53757e-69
2.43249e-71
1.17433e-73
3.4129e-76
4.03028e-79
1.43274e-82
5.29376e-83
4.67763e-28
5.9335e-26
4.2317e-25
6.74312e-25
3.96741e-25
6.54621e-26
3.12411e-27
5.28985e-29
5.25827e-31
4.31554e-33
7.91827e-35
6.24476e-36
7.37315e-37
6.84097e-38
3.53324e-39
1.01971e-40
2.47483e-42
6.86849e-44
2.03928e-45
5.82035e-47
1.54936e-48
3.86082e-50
9.0175e-52
1.96367e-53
3.95749e-55
7.32255e-57
1.23269e-58
1.86751e-60
2.51159e-62
2.94494e-64
2.93529e-66
2.39015e-68
1.48096e-70
6.44014e-73
1.66914e-75
1.65249e-78
1.51339e-81
8.7625e-82
2.49228e-26
2.88148e-24
1.97898e-23
3.1539e-23
1.63011e-23
2.36198e-24
1.05136e-25
1.91633e-27
2.28917e-29
2.54497e-31
4.80783e-33
2.57947e-34
2.10073e-35
1.41709e-36
5.91481e-38
1.60601e-39
3.92727e-41
1.04342e-42
2.85557e-44
7.49892e-46
1.85166e-47
4.30113e-49
9.38213e-51
1.91037e-52
3.60408e-54
6.24802e-56
9.85856e-58
1.39946e-59
1.76083e-61
1.92425e-63
1.76953e-65
1.31281e-67
7.38433e-70
2.90557e-72
6.65885e-75
7.29232e-78
1.40598e-80
9.30367e-81
1.13481e-24
1.15267e-22
7.52333e-22
1.19638e-21
5.54618e-22
7.36682e-23
3.16658e-24
6.27272e-26
8.97744e-28
1.25694e-29
2.51308e-31
9.60408e-33
5.258e-34
2.58039e-35
8.93474e-37
2.31298e-38
5.61269e-40
1.41804e-41
3.59214e-43
8.72802e-45
2.00635e-46
4.35373e-48
8.88283e-50
1.69287e-51
2.99037e-53
4.85354e-55
7.16339e-57
9.49026e-59
1.10881e-60
1.11266e-62
9.3542e-65
6.24491e-67
3.18518e-69
1.15392e-71
2.49922e-74
3.87157e-77
1.10957e-79
7.49303e-80
4.0223e-23
3.74111e-21
2.41523e-20
3.95309e-20
1.81106e-20
2.3431e-21
9.66847e-23
1.95886e-24
3.16609e-26
5.21068e-28
1.0687e-29
3.11808e-31
1.17467e-32
4.29172e-34
1.26981e-35
3.14571e-37
7.4519e-39
1.78262e-40
4.20442e-42
9.51643e-44
2.04625e-45
4.16201e-47
7.96334e-49
1.42301e-50
2.3553e-52
3.5761e-54
4.92128e-56
6.03961e-58
6.49696e-60
5.97158e-62
4.53983e-64
2.73084e-66
1.3378e-68
4.55676e-71
1.18963e-73
2.34757e-76
7.77313e-79
5.11084e-79
1.00273e-21
9.96696e-20
7.10421e-19
1.28093e-18
6.55771e-19
8.39337e-20
3.07136e-21
5.58432e-23
9.14149e-25
1.62272e-26
3.32416e-28
8.14181e-30
2.31249e-31
6.629e-33
1.71869e-34
4.06084e-36
9.28964e-38
2.10459e-39
4.65478e-41
9.88793e-43
2.00033e-44
3.83109e-46
6.89947e-48
1.15905e-49
1.79935e-51
2.5515e-53
3.26246e-55
3.70225e-57
3.63518e-59
3.03254e-61
2.20159e-63
1.32107e-65
6.01046e-68
2.28996e-70
6.96669e-73
1.59637e-75
5.13783e-78
3.17204e-78
1.90021e-20
2.40445e-18
2.00982e-17
4.03964e-17
2.1997e-17
2.51833e-18
7.55636e-20
1.19618e-21
1.91036e-23
3.48681e-25
7.09764e-27
1.58097e-28
3.78962e-30
9.23455e-32
2.16759e-33
4.87714e-35
1.07184e-36
2.31095e-38
4.83975e-40
9.7378e-42
1.8675e-43
3.38947e-45
5.77623e-47
9.15735e-49
1.33632e-50
1.77449e-52
2.10579e-54
2.20415e-56
2.07016e-58
1.72035e-60
1.18589e-62
6.78527e-65
3.38491e-67
1.37795e-69
4.42865e-72
1.13871e-74
3.33968e-77
1.87787e-77
3.83551e-19
5.38652e-17
4.47718e-16
8.92432e-16
4.23621e-16
4.03926e-17
1.0106e-18
1.5641e-20
2.67218e-22
5.10915e-24
1.04394e-25
2.23166e-27
4.92909e-29
1.09957e-30
2.42225e-32
5.2336e-34
1.10945e-35
2.29809e-37
4.61152e-39
8.88602e-41
1.63123e-42
2.82988e-44
4.59734e-46
6.92855e-48
9.57631e-50
1.19723e-51
1.35734e-53
1.40363e-55
1.29471e-57
1.00678e-59
6.83577e-62
4.18433e-64
2.11461e-66
9.07521e-69
3.11062e-71
8.19499e-74
2.23145e-76
1.20187e-76
9.05331e-18
8.88652e-16
5.73102e-15
9.89881e-15
3.60319e-15
3.08566e-16
7.1342e-18
1.20255e-19
2.46883e-21
5.32154e-23
1.119e-24
2.35192e-26
5.02112e-28
1.07846e-29
2.30116e-31
4.84555e-33
1.00129e-34
2.01669e-36
3.92713e-38
7.33399e-40
1.30283e-41
2.1823e-43
3.41603e-45
4.943e-47
6.54252e-49
7.97315e-51
8.9831e-53
9.13419e-55
8.01216e-57
6.1721e-59
4.38822e-61
2.71731e-63
1.40757e-65
6.07858e-68
2.18271e-70
5.74566e-73
1.48193e-75
7.95006e-76
1.67682e-16
8.96646e-15
4.00188e-14
5.7384e-14
1.49966e-14
1.26782e-15
3.16577e-17
6.17694e-19
1.52126e-20
3.93548e-22
9.07949e-24
1.94056e-25
4.10131e-27
8.69186e-29
1.83118e-30
3.80465e-32
7.74632e-34
1.53444e-35
2.93393e-37
5.37138e-39
9.33623e-41
1.52762e-42
2.33067e-44
3.28332e-46
4.26647e-48
5.16869e-50
5.7681e-52
5.7071e-54
4.8636e-56
3.85671e-58
2.81344e-60
1.7107e-62
9.05652e-65
3.95705e-67
1.4592e-69
3.79833e-72
9.56747e-75
5.27529e-75
1.74453e-15
6.22091e-14
2.30164e-13
3.21429e-13
4.71679e-14
3.05602e-15
8.84299e-17
2.26554e-18
6.25699e-20
1.86699e-21
5.04875e-23
1.20175e-24
2.67196e-26
5.7653e-28
1.22204e-29
2.54054e-31
5.15719e-33
1.0158e-34
1.92704e-36
3.49307e-38
6.00088e-40
9.68919e-42
1.45536e-43
2.01873e-45
2.60806e-47
3.15467e-49
3.48572e-51
3.37286e-53
2.89399e-55
2.34351e-57
1.70811e-59
1.04493e-61
5.57409e-64
2.4826e-66
9.18654e-69
2.34244e-71
5.93908e-74
3.43827e-74
1.61196e-14
6.18932e-13
2.46512e-12
3.87688e-12
2.66041e-13
4.64825e-15
1.30991e-16
4.50936e-18
1.54214e-19
4.93879e-21
1.56429e-22
4.55768e-24
1.18204e-25
2.7935e-27
6.25012e-29
1.35058e-30
2.82292e-32
5.68069e-34
1.09421e-35
2.00383e-37
3.4647e-39
5.61289e-41
8.43599e-43
1.16835e-44
1.50651e-46
1.82083e-48
2.00922e-50
1.92712e-52
1.66628e-54
1.36651e-56
9.94751e-59
6.14423e-61
3.2919e-63
1.48833e-65
5.50687e-68
1.37779e-70
3.58934e-73
2.19165e-73
3.6945e-13
8.33006e-12
1.84717e-11
1.67714e-11
1.68406e-12
1.01326e-14
6.36299e-18
3.1572e-19
1.51959e-19
5.9474e-21
2.20485e-22
8.87159e-24
2.96592e-25
8.22798e-27
2.04971e-28
4.83296e-30
1.08901e-31
2.33298e-33
4.72449e-35
8.99071e-37
1.5977e-38
2.62875e-40
3.96153e-42
5.42152e-44
6.91595e-46
8.30195e-48
8.99297e-50
8.58138e-52
7.6993e-54
6.45838e-56
4.68474e-58
3.0009e-60
1.64038e-62
7.82352e-65
2.94639e-67
7.23029e-70
2.04533e-72
1.39724e-72
1
1
1
1
1
1
1
1
1
1
1
1
1
1
1
1
1
1
1
1
1
1
1
1
1
1
1
1
1
1
1
1
1
1
1
1
1
1
1
1
0.968596
0.782729
0.830927
0.997082
0.999999
0.999999
1
1
1
1
1
1
1
1
1
1
1
1
1
1
1
1
1
1
1
1
1
1
1
1
1
1
1
1
1
1
1
1
1
1
1
1
1
1
0.990915
0.758461
0.310846
0.0688949
0.103726
0.444353
0.983141
0.999968
1
1
1
1
1
1
1
1
1
1
1
1
1
1
1
1
1
1
1
1
1
1
1
1
1
1
1
1
1
1
1
1
1
1
1
1
0.999998
0.924581
0.459242
0.0602022
0.00122108
0.000830136
0.00135325
0.0100027
0.546264
0.998955
1
1
1
1
1
1
1
1
1
1
1
1
1
1
1
1
1
1
1
1
1
1
1
1
1
1
1
1
1
1
1
1
1
1
1
0.999982
0.849909
0.268496
0.00393081
0.00024825
0.000116433
0.000104249
0.000189941
0.000717802
0.0250924
0.972119
1
1
1
1
1
1
1
1
1
1
1
1
1
1
1
1
1
1
1
1
1
1
1
1
1
1
1
1
1
1
1
1
1
0.999999
0.999956
0.795372
0.174522
0.000645772
8.54702e-05
2.29055e-05
1.16848e-05
1.26237e-05
2.53042e-05
0.000116996
0.000752358
0.902111
1
1
1
1
1
1
1
1
1
1
1
1
1
1
1
1
1
1
1
1
1
1
1
1
1
1
1
1
1
1
1
1
0.999999
0.999931
0.777676
0.139551
0.00051525
5.41045e-05
7.50941e-06
1.91315e-06
1.19325e-06
1.51533e-06
4.11959e-06
1.85989e-05
0.000115351
0.411808
1
1
1
1
1
1
1
1
1
1
1
1
1
1
1
1
1
1
1
1
1
1
1
1
1
1
1
1
1
1
1
1
0.999935
0.796966
0.143091
0.000515182
4.42431e-05
4.26911e-06
5.90049e-07
1.62275e-07
1.25783e-07
1.98106e-07
5.80621e-07
2.75662e-06
1.79625e-05
0.00567324
1
1
1
1
1
1
1
1
1
1
1
1
1
1
1
1
1
1
1
1
1
1
1
1
1
1
1
1
1
1
1
0.999975
0.845413
0.179592
0.000540962
3.79119e-05
3.33089e-06
3.13005e-07
4.75639e-08
1.59035e-08
1.58543e-08
2.80088e-08
7.71499e-08
4.04882e-07
2.18477e-06
-1.15873e-05
1
1
1
1
1
1
1
1
1
1
1
1
1
1
1
1
1
1
1
1
1
1
1
1
1
1
1
1
1
1
0.999989
0.91586
0.254396
0.000634159
3.76874e-05
3.06851e-06
2.22628e-07
2.37231e-08
5.62508e-09
3.33347e-09
4.6027e-09
7.43961e-09
1.24605e-08
5.49704e-08
6.93749e-08
-3.9524e-07
1
1
1
1
1
1
1
1
1
1
1
1
1
1
1
1
1
1
1
1
1
1
1
1
1
1
1
1
1
0.999996
0.990721
0.377505
0.000789825
4.1474e-05
2.4248e-06
2.02025e-07
1.56976e-08
3.29429e-09
2.47486e-09
2.23767e-09
2.73029e-09
4.90689e-09
3.92629e-09
8.66157e-09
2.47938e-08
-3.98509e-07
1
1
1
1
1
1
1
1
1
1
1
1
1
1
1
1
1
1
1
1
1
1
1
1
1
1
1
1
0.999999
0.99991
0.544412
0.0116868
5.86546e-05
2.89581e-06
1.9253e-07
1.44308e-08
2.46037e-09
1.93893e-09
2.24552e-09
2.13832e-09
2.00446e-09
4.47455e-09
2.82582e-09
2.34981e-09
5.56753e-09
-5.48975e-08
1
1
1
1
1
1
1
1
1
1
1
1
1
1
1
1
1
1
1
1
1
1
1
1
1
1
1
1
0.999986
0.752196
0.0746479
0.000139877
5.54735e-06
2.18197e-07
1.32632e-08
1.83531e-09
1.65789e-09
1.8577e-09
2.23344e-09
2.12813e-09
1.74067e-09
3.036e-09
2.6325e-09
1.55948e-09
1.549e-09
-1.68986e-09
1
1
1
1
1
1
1
1
1
1
1
1
1
1
1
1
1
1
1
1
1
1
1
1
1
1
1
0.999998
0.941648
0.222922
0.000288796
1.06767e-05
3.56419e-07
1.59099e-08
1.63436e-09
1.13207e-09
1.61651e-09
1.85532e-09
2.259e-09
2.11704e-09
1.72983e-09
1.70512e-09
2.18489e-09
1.41406e-09
6.88719e-10
7.45366e-10
1
1
1
1
1
1
1
1
1
1
1
1
1
1
1
1
1
1
1
1
1
1
1
1
1
1
1
0.999967
0.437309
0.000589663
1.64154e-05
4.86139e-07
1.96934e-08
1.6383e-09
8.11009e-10
1.10194e-09
1.62042e-09
1.77966e-09
2.04921e-09
2.01125e-09
1.72651e-09
1.44529e-09
1.592e-09
1.29878e-09
5.76243e-10
6.32496e-10
1
1
1
1
1
1
1
1
1
1
1
1
1
1
1
1
1
1
1
1
1
1
1
1
1
1
0.999997
0.762653
0.0670789
6.58893e-05
1.85911e-06
2.17262e-08
1.38926e-09
5.41359e-10
7.78688e-10
1.10392e-09
1.55043e-09
1.57835e-09
1.64795e-09
1.7661e-09
1.65463e-09
1.35401e-09
1.15276e-09
9.89711e-10
5.58428e-10
4.28069e-10
1
1
1
1
1
1
1
1
1
1
1
1
1
1
1
1
1
1
1
1
1
1
1
1
1
1
0.999891
0.251274
0.000172952
4.47781e-06
1.01333e-08
1.75844e-09
3.81042e-10
5.00051e-10
7.78882e-10
1.07663e-09
1.33088e-09
1.33723e-09
1.3367e-09
1.4343e-09
1.40835e-09
1.13335e-09
8.03809e-10
5.85079e-10
3.77181e-10
1.04836e-10
1
1
1
1
1
1
1
1
1
1
1
1
1
1
1
1
1
1
1
1
1
1
1
1
1
1.00002
0.562119
0.0114235
1.16938e-05
2.23089e-07
2.73682e-09
2.80405e-10
3.20607e-10
4.98718e-10
7.70732e-10
9.70934e-10
1.07258e-09
1.1233e-09
1.10075e-09
1.06648e-09
9.81401e-10
7.48325e-10
4.68807e-10
2.71557e-10
1.51308e-10
4.84054e-11
0.999999
0.999998
0.999999
1
1
1
1
1
1
1
1
1
1
1
1
1
1
1
1
1
1
1
1
1
0.999997
0.96037
0.156576
6.21459e-05
1.0791e-06
-1.53366e-08
2.1526e-10
1.96825e-10
3.19333e-10
5.06759e-10
7.17418e-10
8.21546e-10
8.70341e-10
9.07868e-10
8.38466e-10
6.9515e-10
5.39638e-10
3.65432e-10
2.0403e-10
9.61926e-11
3.93402e-11
1.47337e-11
0.999976
0.999971
0.999983
0.999994
0.999998
0.999999
1
1
1
1
1
1
1
1
1
1
1
1
0.999999
0.999999
0.999998
0.999998
0.999998
0.999997
0.999958
0.469376
0.00117735
2.89982e-06
-2.72039e-08
1.47662e-10
1.18478e-10
1.95719e-10
3.19686e-10
4.9359e-10
6.2089e-10
6.76855e-10
6.92681e-10
6.58916e-10
5.41028e-10
3.76999e-10
2.35466e-10
1.32444e-10
6.31992e-11
2.46584e-11
7.66573e-12
2.37067e-12
0.999569
0.999497
0.999695
0.999897
0.99996
0.99998
0.999991
0.999996
0.999997
0.999998
0.999998
0.999998
0.999998
0.999998
0.999998
0.999997
0.999997
0.999995
0.999992
0.999986
0.999974
0.999963
0.999975
0.999956
0.956269
0.131494
2.81707e-05
3.12577e-07
-6.16306e-09
5.45955e-11
1.17522e-10
1.95675e-10
3.19161e-10
4.44182e-10
5.10587e-10
5.3683e-10
4.98326e-10
4.03001e-10
2.79863e-10
1.63204e-10
8.20628e-11
3.68078e-11
1.42462e-11
4.58964e-12
1.18547e-12
2.98332e-13
0.674864
0.691243
0.836039
0.965985
0.999244
0.999663
0.999851
0.999931
0.999953
0.999964
0.99997
0.999973
0.999973
0.999971
0.999967
0.999958
0.999946
0.999926
0.999877
0.999783
0.999604
0.999455
0.999621
0.999344
0.414117
0.00479354
1.36599e-06
-5.14147e-08
2.94044e-11
5.5787e-11
1.17629e-10
2.02286e-10
2.99791e-10
3.70791e-10
4.01763e-10
3.81973e-10
3.01143e-10
1.99747e-10
1.13639e-10
5.50271e-11
2.262e-11
8.09171e-12
2.51677e-12
6.75974e-13
1.53129e-13
3.41912e-14
0.0277174
0.0425822
0.134522
0.355659
0.64098
0.837032
0.945327
0.989427
0.998936
0.999396
0.999503
0.999559
0.999562
0.999531
0.999459
0.999334
0.998982
0.993714
0.973819
0.932909
0.855382
0.794977
0.877706
0.748403
0.0717601
7.41642e-06
1.29423e-08
-1.33886e-10
3.83271e-11
5.60281e-11
1.26751e-10
1.98534e-10
2.59213e-10
2.90036e-10
2.88432e-10
2.26659e-10
1.4635e-10
7.85992e-11
3.61717e-11
1.44165e-11
4.93123e-12
1.46052e-12
3.80676e-13
8.78156e-14
1.77679e-14
3.62501e-15
0
-2.85026e-17
0
0
0.0243359
0.134079
0.28787
0.457924
0.607237
0.701773
0.761287
0.7931
0.797456
0.784629
0.751886
0.695322
0.614206
0.495958
0.370207
0.255902
0.144677
0.0921209
0.167769
0.0693527
-5.98307e-10
-8.89411e-09
-2.2767e-09
1.18435e-11
3.82554e-11
6.43256e-11
1.30719e-10
1.79174e-10
2.04569e-10
2.13893e-10
1.71407e-10
1.07977e-10
5.60283e-11
2.43531e-11
9.12938e-12
3.01992e-12
8.82967e-13
2.28111e-13
5.25415e-14
1.0736e-14
1.93403e-15
3.56737e-16
2.51551e-15
-1.70122e-16
-1.93587e-16
-2.4394e-15
-2.17011e-14
-1.42348e-14
-1.68892e-14
-8.71507e-14
0.00757967
0.0403116
0.0698769
0.0898574
0.0927808
0.0841029
0.0643085
0.0369488
0.00795826
-5.34165e-18
-4.25833e-22
0
0
-3.85582e-11
-2.58105e-22
3.37455e-11
-2.69634e-13
-3.11303e-10
-6.63894e-10
2.19362e-11
4.36723e-11
7.13035e-11
1.20528e-10
1.45027e-10
1.51593e-10
1.32197e-10
8.09183e-11
4.05653e-11
1.68265e-11
5.99083e-12
1.88315e-12
5.35254e-13
1.386e-13
3.2431e-14
6.79149e-15
1.25069e-15
1.99438e-16
3.26264e-17
4.81698e-15
-4.03855e-16
-5.21272e-16
-1.58134e-14
-1.3439e-13
-8.67113e-14
-1.0094e-13
-1.38555e-12
-9.80447e-12
-3.69507e-11
-8.26951e-09
-1.99581e-08
-8.66286e-09
-2.39058e-09
-5.35124e-10
-1.11334e-10
-2.51294e-11
-1.14237e-11
-2.92097e-11
-1.1879e-10
-3.99193e-10
-7.25994e-10
6.94366e-11
2.14842e-10
-3.54858e-15
-1.13108e-09
-1.88461e-10
2.86497e-11
4.61439e-11
6.62805e-11
9.55424e-11
1.0532e-10
9.78222e-11
6.30279e-11
3.00531e-11
1.19651e-11
4.02506e-12
1.21004e-12
3.33498e-13
8.51128e-14
2.00693e-14
4.30426e-15
8.22648e-16
1.3709e-16
1.9506e-17
2.75889e-18
4.93913e-15
-5.97786e-16
-9.18312e-16
-2.8951e-14
-2.35634e-13
-1.57631e-13
-1.81188e-13
-2.393e-12
-1.84114e-11
-7.47216e-11
-1.66882e-08
-4.24541e-08
-1.88553e-08
-5.14241e-09
-1.1211e-09
-2.26431e-10
-5.07284e-11
-2.64441e-11
-7.35857e-11
-2.82837e-10
-8.5264e-10
-1.16632e-09
7.35726e-09
6.95278e-08
3.33966e-08
-2.09969e-09
-9.67619e-12
3.90003e-11
4.56611e-11
5.3088e-11
6.54985e-11
6.82296e-11
4.87458e-11
2.27355e-11
8.78317e-12
2.81063e-12
7.97229e-13
2.11645e-13
5.32277e-14
1.25293e-14
2.71659e-15
5.32776e-16
9.26154e-17
1.39783e-17
1.7994e-18
2.15127e-19
3.74823e-15
-5.81329e-16
-1.14794e-15
-3.74587e-14
-2.95552e-13
-2.02552e-13
-2.43787e-13
-3.14222e-12
-2.41429e-11
-9.60386e-11
-1.83123e-08
-4.73342e-08
-2.11706e-08
-5.63689e-09
-1.18369e-09
-2.31711e-10
-5.4259e-11
-4.18494e-11
-1.41305e-10
-5.19026e-10
-1.40202e-09
-8.43e-10
2.34301e-08
1.39472e-07
1.28709e-07
-2.75675e-09
1.94954e-12
5.11755e-11
4.83356e-11
4.08969e-11
4.00482e-11
3.46042e-11
1.78887e-11
6.2902e-12
2.02993e-12
5.45658e-13
1.37687e-13
3.35822e-14
7.84203e-15
1.70859e-15
3.40096e-16
6.08527e-17
9.62471e-18
1.32026e-18
1.54868e-19
1.56924e-20
8.34673e-16
-4.42017e-16
-1.14035e-15
-3.92858e-14
-3.025e-13
-2.04627e-13
-2.83129e-13
-3.64814e-12
-2.72527e-11
-1.0185e-10
-1.34842e-08
-3.53035e-08
-1.53316e-08
-3.90724e-09
-7.91897e-10
-1.55603e-10
-4.49187e-11
-6.57132e-11
-2.51701e-10
-8.64138e-10
-1.98929e-09
-5.57167e-10
2.31687e-08
1.39472e-07
1.177e-07
-2.87787e-09
2.12523e-11
5.11755e-11
4.45623e-11
2.69955e-11
2.01552e-11
1.27262e-11
4.86856e-12
1.37916e-12
3.78742e-13
9.18188e-14
2.15621e-14
4.91579e-15
1.06378e-15
2.13263e-16
3.89065e-17
6.36794e-18
9.20636e-19
1.15372e-19
1.23663e-20
1.07464e-21
9.0492e-17
-2.67862e-16
-9.45177e-16
-3.45094e-14
-2.58594e-13
-1.66555e-13
-3.0182e-13
-3.90658e-12
-2.78424e-11
-9.61376e-11
-6.56867e-09
-1.71765e-08
-7.08708e-09
-1.75868e-09
-3.68272e-10
-8.20964e-11
-4.03104e-11
-1.08717e-10
-4.17919e-10
-1.25344e-09
-2.58309e-09
-2.84536e-09
1.22243e-09
2.97128e-08
2.63709e-08
-2.17245e-09
1.95523e-11
3.88858e-11
3.07902e-11
1.40315e-11
7.90266e-12
3.45986e-12
1.01712e-12
2.50149e-13
5.96718e-14
1.38515e-14
3.09044e-15
6.57923e-16
1.31246e-16
2.417e-17
4.05355e-18
6.10211e-19
8.10761e-20
9.32356e-21
9.14607e-22
6.86927e-23
7.16019e-18
-1.1582e-16
-6.66344e-16
-2.52076e-14
-1.82892e-13
-1.10939e-13
-3.10849e-13
-3.90479e-12
-2.59341e-11
-8.32488e-11
-1.8178e-09
-4.64158e-09
-1.93951e-09
-5.6102e-10
-1.48805e-10
-4.57919e-11
-4.76694e-11
-1.66514e-10
-5.78604e-10
-1.52938e-09
-2.89601e-09
-3.77635e-09
-3.322e-09
-2.69262e-09
-2.00528e-09
-9.68748e-10
4.59678e-31
1.68258e-11
1.6184e-11
5.62988e-12
2.27881e-12
7.28463e-13
1.69724e-13
3.87805e-14
8.3635e-15
1.88765e-15
4.00293e-16
7.93265e-17
1.46226e-17
2.48835e-18
3.86077e-19
5.37467e-20
6.59011e-21
6.97496e-22
6.26686e-23
4.08268e-24
4.1576e-19
-3.6408e-17
-4.02985e-16
-1.49527e-14
-1.03828e-13
-6.34817e-14
-3.18848e-13
-3.63523e-12
-2.18347e-11
-6.60901e-11
-2.64802e-10
-5.78085e-10
-4.09359e-10
-2.00895e-10
-7.33592e-11
-3.2514e-11
-5.8623e-11
-2.1057e-10
-6.56979e-10
-1.5583e-09
-2.69105e-09
-3.25503e-09
-2.66266e-09
-1.46991e-09
-6.07867e-10
-1.87705e-10
2.20817e-12
5.87415e-12
5.66525e-12
1.70121e-12
4.45999e-13
1.1902e-13
2.33652e-14
5.18871e-15
1.06988e-15
2.30449e-16
4.61905e-17
8.56e-18
1.47279e-18
2.33858e-19
3.38074e-20
4.3736e-21
4.96581e-22
4.848e-23
3.99015e-24
2.25102e-25
-6.47123e-21
-1.01955e-17
-2.11143e-16
-6.98113e-15
-4.52686e-14
-3.77052e-14
-3.26735e-13
-3.13935e-12
-1.64056e-11
-4.71216e-11
-1.45533e-10
-2.6032e-10
-1.80652e-10
-9.58694e-11
-3.88023e-11
-2.48916e-11
-6.24509e-11
-2.13727e-10
-6.05676e-10
-1.31982e-09
-2.13778e-09
-2.47786e-09
-1.94987e-09
-9.58069e-10
-2.53142e-10
-2.68596e-11
7.90941e-13
1.4376e-12
1.26265e-12
3.22248e-13
5.75666e-14
1.45826e-14
2.74462e-15
6.01418e-16
1.23692e-16
2.50105e-17
4.73516e-18
8.29588e-19
1.34821e-19
2.01625e-20
2.73426e-21
3.30376e-22
3.48682e-23
3.14817e-24
2.37415e-25
1.15282e-26
-2.68777e-20
-3.7376e-18
-1.01036e-16
-2.50367e-15
-1.46594e-14
-3.11541e-14
-3.28594e-13
-2.49968e-12
-1.0753e-11
-2.76531e-11
-6.16538e-11
-8.93441e-11
-6.69571e-11
-4.04071e-11
-1.89723e-11
-1.82397e-11
-5.31431e-11
-1.69311e-10
-4.41608e-10
-9.00578e-10
-1.39678e-09
-1.59055e-09
-1.25964e-09
-6.28888e-10
-1.58039e-10
-7.41494e-12
3.281e-13
3.70892e-13
1.46238e-13
3.48453e-14
5.75706e-15
1.38493e-15
2.87122e-16
6.14376e-17
1.26402e-17
2.41367e-18
4.34757e-19
7.28077e-20
1.12811e-20
1.60073e-21
2.04916e-22
2.32514e-23
2.2916e-24
1.92022e-25
1.32847e-26
5.51132e-28
-2.85009e-20
-1.92174e-18
-5.05993e-17
-7.34823e-16
-4.34904e-15
-3.05433e-14
-2.73084e-13
-1.5801e-12
-5.48966e-12
-1.20149e-11
-2.02357e-11
-2.53069e-11
-2.205e-11
-1.52163e-11
-8.48642e-12
-1.13111e-11
-3.39299e-11
-9.9876e-11
-2.41483e-10
-4.6471e-10
-6.95353e-10
-7.82515e-10
-6.26678e-10
-3.20953e-10
-7.99478e-11
-1.79536e-13
1.87333e-13
9.8276e-14
2.06225e-14
3.68064e-15
6.08783e-16
1.20502e-16
2.72607e-17
5.64527e-18
1.13107e-18
2.08331e-19
3.6126e-20
5.83005e-21
8.66828e-22
1.17396e-22
1.42682e-23
1.52858e-24
1.41382e-25
1.10407e-26
7.02384e-28
2.47422e-29
-1.81054e-20
-8.74788e-19
-1.81507e-17
-2.12828e-16
-2.04375e-15
-2.08329e-14
-1.50072e-13
-7.0073e-13
-2.06469e-12
-3.99518e-12
-5.83186e-12
-7.02282e-12
-6.90807e-12
-5.09022e-12
-3.27138e-12
-5.22557e-12
-1.50514e-11
-4.05496e-11
-9.02749e-11
-1.62281e-10
-2.31104e-10
-2.52967e-10
-2.01748e-10
-1.05353e-10
-2.72758e-11
2.48212e-14
8.01218e-14
2.52943e-14
4.52592e-15
6.02838e-16
6.73591e-17
1.08385e-17
2.29045e-18
4.66815e-19
8.93961e-20
1.618e-20
2.73275e-21
4.27674e-22
6.13516e-23
7.97377e-24
9.25024e-25
9.40414e-26
8.20201e-27
5.99476e-28
3.51774e-29
1.04758e-30
-5.38412e-21
-2.39983e-19
-5.18411e-18
-7.748e-17
-9.25505e-16
-8.28877e-15
-5.01233e-14
-2.01716e-13
-5.41994e-13
-1.02947e-12
-1.54757e-12
-1.93492e-12
-1.91553e-12
-1.39298e-12
-9.54033e-13
-1.57467e-12
-4.17817e-12
-1.01548e-11
-2.03123e-11
-3.26676e-11
-4.14584e-11
-4.02941e-11
-2.84452e-11
-1.31074e-11
-2.97497e-12
2.50373e-14
2.02817e-14
4.48373e-15
1.01673e-15
1.04985e-16
5.72428e-18
9.12537e-19
1.65379e-19
3.403e-20
6.31527e-21
1.13365e-21
1.88239e-22
2.8757e-23
4.00392e-24
5.0222e-25
5.59027e-26
5.41961e-27
4.47782e-28
3.07606e-29
1.67053e-30
4.1927e-32
-5.24849e-22
-3.30529e-20
-9.64764e-19
-1.69221e-17
-1.94923e-16
-1.52301e-15
-8.15634e-15
-3.02006e-14
-7.96251e-14
-1.60149e-13
-2.64529e-13
-3.55479e-13
-3.59201e-13
-2.57076e-13
-1.69313e-13
-2.53636e-13
-6.29675e-13
-1.47503e-12
-2.88548e-12
-4.54224e-12
-5.66108e-12
-5.40573e-12
-3.7601e-12
-1.70791e-12
-3.79632e-13
5.81609e-15
1.66117e-15
5.03892e-16
1.43694e-16
1.22195e-17
2.78606e-19
6.04614e-20
1.01104e-20
2.14059e-21
3.98858e-22
7.15107e-23
1.17725e-23
1.76919e-24
2.40722e-25
2.93195e-26
3.14872e-27
2.9257e-28
2.30062e-29
1.49173e-30
7.52431e-32
1.58754e-33
-4.3174e-24
-2.71492e-22
-8.20684e-21
-1.56151e-19
-2.07013e-18
-2.00249e-17
-1.44354e-16
-7.81131e-16
-3.16639e-15
-9.51945e-15
-2.08367e-14
-3.22521e-14
-3.38116e-14
-2.25545e-14
-8.21082e-15
1.61286e-15
2.15942e-14
4.50791e-14
4.7807e-14
4.17437e-14
9.38515e-15
-2.4467e-15
-1.00583e-14
-5.3208e-15
-5.48374e-16
4.02555e-16
4.9374e-17
2.16168e-17
6.73657e-18
4.8061e-19
7.63409e-21
2.94357e-21
5.15251e-22
1.15266e-22
2.22827e-23
4.03856e-24
6.65644e-25
9.9284e-26
1.33029e-26
1.58384e-27
1.65082e-28
1.47801e-29
1.11152e-30
6.83287e-32
3.21346e-33
5.68521e-35
-1.07385e-42
-6.8826e-42
5.12578e-57
2.12881e-81
-9.60047e-60
-4.29982e-50
-3.84657e-55
-2.12254e-52
-2.53705e-49
-6.73626e-46
-3.81277e-42
-8.10484e-38
-1.84235e-33
-1.09507e-28
1.06493e-19
6.83702e-17
1.50203e-15
8.04832e-15
1.56961e-14
1.27555e-14
1.54027e-14
7.2028e-15
3.91348e-16
3.5836e-17
4.04095e-18
1.16862e-18
5.15646e-19
1.51334e-19
3.11946e-20
5.91962e-22
1.92503e-22
9.73234e-23
2.16199e-23
5.3025e-24
1.08626e-24
2.02687e-25
3.38549e-26
5.06249e-27
6.73636e-28
7.89705e-29
8.03931e-30
6.97494e-31
5.04227e-32
2.95228e-33
1.29996e-34
1.92248e-36
-7.73077e-43
-2.99478e-42
8.54685e-82
1.02745e-40
2.04332e-38
4.3534e-36
6.35123e-34
7.29257e-32
6.97653e-30
6.22558e-28
2.91652e-25
7.69846e-23
1.35262e-21
4.44658e-21
8.64087e-21
7.17054e-20
2.05594e-18
1.45477e-17
3.85606e-17
5.75318e-17
6.39909e-17
1.29785e-18
3.30542e-19
1.11125e-19
6.33723e-20
4.13189e-20
1.46969e-20
1.78758e-21
2.31471e-24
6.92978e-25
5.39501e-24
2.04504e-24
7.44021e-25
2.04472e-25
4.55012e-26
8.95157e-27
1.53787e-27
2.33296e-28
3.11245e-29
3.6215e-30
3.62574e-31
3.06672e-32
2.14257e-33
1.20063e-34
4.97137e-36
6.12081e-38
-4.4331e-43
-3.047e-42
-1.71065e-52
-6.00837e-42
-1.00108e-39
-1.40275e-37
-1.54167e-35
-1.4128e-33
-1.10204e-31
-7.43454e-30
1.26076e-25
3.65621e-23
5.89071e-22
1.71716e-21
2.00656e-21
1.84034e-21
2.19741e-21
4.57853e-21
9.68362e-21
1.68142e-20
2.15049e-20
2.19555e-20
1.14668e-20
5.49132e-21
3.48609e-21
1.82624e-21
5.21422e-22
6.13431e-23
1.33924e-25
4.79561e-26
2.0905e-25
4.26718e-26
2.04605e-26
6.36717e-27
1.5997e-27
3.41611e-28
6.16257e-29
9.63128e-30
1.30331e-30
1.51927e-31
1.50743e-32
1.25121e-33
8.49683e-35
4.58018e-36
1.79136e-37
1.82458e-39
-1.80216e-43
-3.91731e-42
-3.59271e-41
-1.37472e-40
-2.75288e-42
-2.59497e-40
-2.18905e-38
-1.55302e-36
-9.34576e-35
-4.28234e-33
2.68602e-31
1.87771e-29
1.31341e-26
1.13534e-24
1.30137e-23
4.70742e-23
8.4487e-23
1.00489e-22
9.77781e-23
7.06713e-23
6.88895e-23
1.16887e-22
2.00539e-22
2.47322e-22
2.43797e-22
9.91555e-23
1.91455e-23
2.25307e-24
1.21998e-25
1.22211e-26
7.08635e-27
1.31408e-27
5.00734e-28
1.63201e-28
4.63007e-29
1.09455e-29
2.13051e-30
3.50464e-31
4.88659e-32
5.77649e-33
5.73432e-34
4.70648e-35
3.12678e-36
1.63034e-37
6.04958e-39
5.02336e-41
-7.45899e-68
-7.63801e-65
-1.79932e-53
-9.7654e-51
7.65385e-45
8.349e-43
7.95664e-41
6.39069e-39
4.51209e-37
2.84011e-35
2.86813e-33
3.04116e-31
4.94455e-28
3.06546e-26
3.03575e-25
1.03127e-24
1.8611e-24
2.3286e-24
2.42226e-24
2.23813e-24
2.7742e-24
5.88176e-24
9.65834e-24
1.13129e-23
1.01705e-23
3.57804e-24
6.86528e-25
8.74444e-26
8.30315e-27
7.53072e-28
1.64523e-28
5.18209e-29
1.41915e-29
4.13012e-30
1.16484e-30
2.93155e-31
6.21292e-32
1.09687e-32
1.6053e-33
1.95615e-34
1.96916e-35
1.61464e-36
1.05773e-37
5.36932e-39
1.89802e-40
1.23676e-42
-4.967e-52
-3.02447e-55
6.73641e-52
1.20439e-49
-4.44865e-47
2.21915e-45
2.01301e-43
1.62167e-41
1.16282e-39
8.42017e-38
1.00476e-35
6.8363e-34
1.38063e-30
2.14202e-28
3.48814e-27
1.71026e-26
4.05765e-26
6.33929e-26
7.97505e-26
9.44682e-26
1.31769e-25
2.53489e-25
3.9156e-25
4.48033e-25
3.75928e-25
1.22901e-25
2.31564e-26
2.76746e-27
1.74453e-28
1.56997e-29
5.33103e-30
1.91198e-30
4.75011e-31
1.23421e-31
3.03374e-32
7.23344e-33
1.56806e-33
2.92454e-34
4.51928e-35
5.74342e-36
5.95858e-37
4.94734e-38
3.23619e-39
1.61282e-40
5.45006e-42
2.50228e-44
-3.1579e-52
-3.11658e-51
-8.78255e-53
-1.54755e-50
-3.56671e-49
-3.72301e-47
-2.74746e-45
-1.62336e-43
-7.2787e-42
-1.08722e-40
5.0506e-38
2.60568e-36
3.46119e-34
5.17519e-31
2.58337e-29
2.56759e-28
9.48449e-28
1.95413e-27
2.95371e-27
3.96423e-27
5.62348e-27
9.22587e-27
1.3522e-26
1.53217e-26
1.24925e-26
4.01647e-27
7.6017e-28
8.95453e-29
4.92522e-30
3.83835e-31
1.84698e-31
5.77253e-32
1.57774e-32
4.05348e-33
9.10256e-34
1.94779e-34
3.88829e-35
7.06983e-36
1.11345e-36
1.45796e-37
1.55591e-38
1.31086e-39
8.64492e-41
4.30018e-42
1.39757e-43
3.70363e-46
-4.80157e-58
0
1.33707e-56
2.88082e-54
4.17313e-52
4.73247e-50
4.61635e-48
3.82632e-46
2.78794e-44
2.86875e-42
1.97427e-40
1.03797e-38
6.30827e-37
9.95329e-34
1.52187e-31
2.87491e-30
1.63748e-29
4.45973e-29
8.10104e-29
1.2294e-28
1.82899e-28
2.82978e-28
3.94554e-28
4.44961e-28
3.73115e-28
1.26389e-28
2.50747e-29
3.12314e-30
1.86713e-31
1.31868e-32
5.66445e-33
1.47434e-33
4.77723e-34
1.26033e-34
2.86294e-35
5.8805e-36
1.07988e-36
1.7916e-37
2.67498e-38
3.44676e-39
3.65109e-40
3.02587e-41
1.95163e-42
9.63296e-44
3.04459e-45
4.54711e-48
-1.49115e-57
-1.96382e-56
-9.37284e-59
-1.39132e-57
-2.56991e-55
1.06927e-52
1.05789e-50
9.09925e-49
1.13663e-46
8.77941e-45
5.31996e-43
2.91247e-41
1.46466e-39
4.44893e-37
5.23812e-34
2.04166e-32
1.87913e-31
6.92072e-31
1.5203e-30
2.63153e-30
4.26181e-30
6.76447e-30
9.44456e-30
1.07052e-29
9.54528e-30
3.55152e-30
7.38055e-31
9.6981e-32
7.0821e-33
9.35406e-34
3.07195e-34
3.45312e-35
1.31483e-35
3.49752e-36
8.41607e-37
1.76807e-37
3.22814e-38
5.11522e-39
7.092e-40
8.58339e-41
8.65794e-42
6.80284e-43
4.00897e-44
1.76789e-45
5.06257e-47
9.37368e-50
-6.55227e-58
-1.34302e-56
-9.45604e-56
-1.25724e-55
-3.66837e-57
-2.55562e-55
-1.27745e-53
1.36625e-52
5.77161e-50
3.99019e-48
2.49375e-46
1.42357e-44
7.31494e-43
3.97992e-40
1.11429e-36
7.26613e-35
9.77119e-34
4.85304e-33
1.37446e-32
3.05346e-32
6.31817e-32
1.1991e-31
1.84129e-31
2.17278e-31
2.12576e-31
9.50295e-32