/*--------------------------------*- C++ -*----------------------------------*\
  =========                 |
  \\      /  F ield         | OpenFOAM: The Open Source CFD Toolbox
   \\    /   O peration     | Website:  https://openfoam.org
    \\  /    A nd           | Version:  7
     \\/     M anipulation  |
\*---------------------------------------------------------------------------*/
FoamFile
{
    version     2.0;
    format      ascii;
    class       volScalarField;
    location    "0.2";
    object      epsilon;
}
// * * * * * * * * * * * * * * * * * * * * * * * * * * * * * * * * * * * * * //

dimensions      [0 2 -3 0 0 0 0];

internalField   nonuniform List<scalar> 
9072
(
0.0418053
0.163848
0.306044
0.427627
0.536399
0.635638
0.727956
0.815331
0.899361
0.981421
1.06275
1.14449
1.22775
1.31361
1.40308
1.49716
1.59679
1.70283
1.81602
1.93693
2.0659
2.20296
2.34777
2.49955
2.65697
2.81814
2.9805
3.14086
3.29534
3.43939
3.56787
3.67506
3.75474
3.80027
3.80438
3.75868
3.65996
3.51114
3.29364
2.9922
2.60015
2.13259
1.64566
1.22857
0.972395
0.868964
0.0589593
0.110791
0.161283
0.203343
0.239486
0.271461
0.300511
0.327518
0.353126
0.377849
0.402127
0.426361
0.450924
0.476175
0.502458
0.530107
0.559442
0.590758
0.624324
0.660357
0.69901
0.740349
0.784325
0.830751
0.879277
0.929369
0.980293
1.03111
1.08068
1.12768
1.17065
1.20802
1.23822
1.25983
1.27173
1.2735
1.27296
1.28559
1.31649
1.37531
1.48048
1.67004
1.96873
2.22637
1.90538
1.13307
0.0904204
0.117104
0.148667
0.174638
0.196296
0.214898
0.231401
0.246498
0.260687
0.274348
0.287795
0.301297
0.315099
0.329427
0.344495
0.360505
0.377649
0.396102
0.416015
0.43751
0.460662
0.485492
0.511946
0.539882
0.569052
0.599095
0.629525
0.659732
0.688986
0.716461
0.741261
0.762483
0.779291
0.79105
0.797531
0.799244
0.799354
0.806071
0.826929
0.872709
0.960382
1.12501
1.42622
1.86059
2.01
1.90736
0.118421
0.130756
0.152506
0.170608
0.185584
0.198254
0.20933
0.219372
0.228795
0.237919
0.247001
0.25626
0.265887
0.276052
0.286917
0.298625
0.311311
0.325091
0.34006
0.356285
0.373793
0.392563
0.412515
0.433494
0.455264
0.477502
0.49979
0.521618
0.542397
0.56148
0.578191
0.591884
0.602022
0.608301
0.610844
0.610518
0.60989
0.614719
0.631962
0.670787
0.743054
0.872423
1.11473
1.54712
2.00164
2.52981
0.142348
0.14544
0.160564
0.173361
0.183986
0.192933
0.200709
0.20775
0.214401
0.220934
0.227569
0.234489
0.241855
0.249805
0.258464
0.267943
0.278338
0.289729
0.302171
0.315692
0.330281
0.345884
0.36239
0.379627
0.397352
0.415246
0.43292
0.449914
0.465717
0.479782
0.491571
0.500601
0.506529
0.509267
0.509168
0.507326
0.506266
0.51098
0.5284
0.567915
0.640547
0.762855
0.979452
1.39854
2.02984
3.06602
0.163818
0.159221
0.169562
0.178448
0.185846
0.192068
0.197475
0.202407
0.207147
0.211924
0.216928
0.222316
0.228222
0.23476
0.242032
0.250122
0.259099
0.269012
0.279886
0.291718
0.304467
0.318047
0.332324
0.347102
0.362129
0.377087
0.391602
0.405249
0.417571
0.428105
0.436416
0.442156
0.445136
0.44544
0.443599
0.44088
0.43988
0.445375
0.464583
0.507982
0.588846
0.724183
0.950758
1.37683
2.10758
3.59334
0.183201
0.171432
0.178231
0.184202
0.189117
0.193211
0.196774
0.200081
0.203369
0.206832
0.210631
0.214901
0.219756
0.22529
0.231583
0.238699
0.246683
0.255561
0.265331
0.275963
0.287389
0.299499
0.312134
0.325082
0.338077
0.350805
0.362902
0.373975
0.383617
0.391435
0.39709
0.400349
0.401158
0.399748
0.3968
0.393724
0.393216
0.40007
0.421979
0.470966
0.564
0.72333
0.985478
1.44692
2.24085
4.12283
0.200546
0.181926
0.186039
0.189854
0.192852
0.195252
0.197327
0.199324
0.201446
0.203863
0.206713
0.210111
0.214152
0.218915
0.224461
0.230835
0.238062
0.246147
0.255065
0.264763
0.27515
0.286092
0.29741
0.308878
0.320223
0.331128
0.341247
0.350216
0.357674
0.363297
0.366833
0.368153
0.367326
0.364709
0.361111
0.358062
0.358365
0.366949
0.39212
0.447738
0.555253
0.744734
1.05856
1.58192
2.43722
4.76751
0.215848
0.190775
0.192795
0.195019
0.196549
0.197601
0.198464
0.199383
0.200544
0.2021
0.204172
0.206859
0.210241
0.21438
0.219323
0.225097
0.231711
0.239148
0.247366
0.256289
0.265806
0.275763
0.285964
0.296171
0.306105
0.315455
0.323889
0.331072
0.336692
0.340488
0.342291
0.342069
0.339995
0.33654
0.332617
0.329855
0.331166
0.341668
0.370372
0.43316
0.556435
0.779557
1.15488
1.7612
2.69839
5.55299
0.229168
0.198136
0.198468
0.199514
0.199927
0.199915
0.199797
0.199825
0.200187
0.201023
0.202444
0.204536
0.207367
0.210986
0.215423
0.220693
0.226787
0.233672
0.241287
0.249538
0.258295
0.267388
0.276606
0.285703
0.294396
0.302379
0.30934
0.314975
0.319018
0.321268
0.321632
0.320168
0.317142
0.313117
0.309091
0.306772
0.309165
0.321599
0.353813
0.423786
0.563068
0.821079
1.26296
1.96735
3.01731
6.46987
0.240677
0.204191
0.203098
0.203255
0.202824
0.201984
0.20108
0.200381
0.200078
0.200312
0.201185
0.202775
0.205138
0.208313
0.212317
0.217151
0.222792
0.229192
0.236273
0.243924
0.252
0.260315
0.26865
0.276747
0.284326
0.291091
0.296746
0.30102
0.303691
0.304619
0.303778
0.301306
0.297549
0.293145
0.289157
0.287345
0.290782
0.304993
0.340403
0.416997
0.571349
0.86298
1.37155
2.18256
3.37776
7.49683
0.250638
0.209121
0.206754
0.206216
0.205149
0.203675
0.202153
0.200869
0.200024
0.199758
0.200173
0.201338
0.203303
0.206096
0.209725
0.214178
0.219418
0.225383
0.231982
0.239089
0.246544
0.25415
0.261676
0.268864
0.275433
0.281098
0.285584
0.288651
0.290121
0.289908
0.288051
0.284755
0.280433
0.275783
0.271906
0.270591
0.274938
0.290625
0.328637
0.410711
0.577902
0.898924
1.46834
2.38585
3.75385
8.59211
0.259368
0.213094
0.209512
0.208404
0.206855
0.204905
0.202911
0.20117
0.199892
0.19922
0.199255
0.200066
0.201694
0.20416
0.207463
0.211579
0.216462
0.222036
0.228196
0.234804
0.241687
0.24864
0.255423
0.261776
0.267422
0.272089
0.275521
0.277512
0.277924
0.27672
0.273999
0.270023
0.265261
0.260448
0.256707
0.25582
0.260873
0.27762
0.317421
0.403337
0.579918
0.922898
1.53999
2.55199
4.10935
9.68971
0.267182
0.216254
0.211448
0.209843
0.207927
0.205629
0.203287
0.201202
0.199588
0.198596
0.198327
0.198847
0.200194
0.202383
0.205404
0.209225
0.213788
0.219008
0.224767
0.230916
0.237271
0.243619
0.249716
0.255299
0.260099
0.263855
0.266334
0.26736
0.266833
0.264765
0.261304
0.256761
0.251648
0.246723
0.243107
0.242546
0.248055
0.26538
0.306019
0.393816
0.575436
0.929969
1.57352
2.65268
4.3981
10.7016
0.274356
0.218724
0.212638
0.210574
0.208372
0.205827
0.203241
0.200909
0.19905
0.197816
0.197311
0.1976
0.198719
0.200677
0.203458
0.207022
0.211302
0.216202
0.221594
0.22732
0.233187
0.238974
0.244434
0.249306
0.253327
0.25625
0.257863
0.258018
0.256656
0.253829
0.249729
0.244709
0.23931
0.234301
0.230778
0.230424
0.236142
0.253531
0.293993
0.381531
0.563389
0.9177
1.56047
2.6622
4.56339
11.5262
0.281118
0.220597
0.213148
0.210645
0.208214
0.205501
0.202757
0.200264
0.198237
0.196833
0.196155
0.19627
0.19721
0.198981
0.201561
0.204904
0.208934
0.213546
0.218604
0.223941
0.229357
0.234624
0.239494
0.243708
0.24701
0.249166
0.249989
0.249358
0.247247
0.243749
0.239093
0.233668
0.228033
0.222952
0.219486
0.219228
0.224928
0.241875
0.281067
0.365962
0.543478
0.892347
1.51847
2.58708
4.54167
12.0718
0.0958673
0.194311
0.272719
0.330413
0.370856
0.396883
0.411677
0.41892
0.421447
0.421222
0.419489
0.416983
0.414185
0.411464
0.409087
0.407144
0.405559
0.404198
0.402967
0.401816
0.400726
0.399679
0.398639
0.397541
0.39627
0.394666
0.392515
0.389518
0.385263
0.379184
0.370509
0.358191
0.340799
0.316369
0.282156
0.234141
0.166596
0.0536953
0.102592
0.141033
0.180905
0.209381
0.228873
0.240809
0.24667
0.248617
0.248417
0.247247
0.245772
0.244318
0.243049
0.242077
0.241462
0.241165
0.241062
0.241025
0.240973
0.240874
0.240727
0.240538
0.240306
0.240013
0.239615
0.23904
0.238184
0.236893
0.234947
0.232028
0.227691
0.221308
0.212007
0.19858
0.179396
0.152388
0.115816
0.0789761
0.13027
0.133923
0.160979
0.180483
0.19305
0.199566
0.201331
0.20023
0.197843
0.195199
0.192835
0.190954
0.189594
0.188737
0.188326
0.188257
0.188385
0.188581
0.188764
0.188895
0.188968
0.188988
0.18896
0.188878
0.188722
0.188452
0.18801
0.1873
0.186183
0.184449
0.181796
0.177785
0.171799
0.162981
0.150218
0.132339
0.109579
0.101664
0.159473
0.140384
0.161088
0.175994
0.184371
0.187056
0.1855
0.181646
0.177079
0.17279
0.169249
0.166582
0.164738
0.163601
0.163034
0.162877
0.162967
0.163165
0.163381
0.163566
0.163705
0.163798
0.163846
0.163852
0.163804
0.163682
0.163449
0.163047
0.16238
0.161301
0.159594
0.156936
0.15287
0.146767
0.137864
0.125601
0.111639
0.124877
0.1917
0.153701
0.170699
0.182584
0.187546
0.186639
0.181704
0.174929
0.167987
0.161857
0.156945
0.153296
0.150773
0.149176
0.148294
0.147921
0.147865
0.147975
0.148147
0.14832
0.148468
0.148584
0.148667
0.148719
0.148736
0.148709
0.148617
0.148422
0.148061
0.147432
0.146376
0.144654
0.141925
0.137738
0.1316
0.123431
0.11606
0.146667
0.227923
0.172158
0.186958
0.196565
0.19822
0.19344
0.184705
0.17461
0.164972
0.156754
0.150279
0.14549
0.142151
0.139976
0.138683
0.138016
0.137755
0.137727
0.137813
0.137938
0.138066
0.13818
0.138277
0.138356
0.13842
0.138464
0.138479
0.138446
0.138323
0.138041
0.137486
0.136485
0.13479
0.13209
0.128118
0.123186
0.121128
0.166614
0.268874
0.195616
0.209329
0.217067
0.21515
0.205853
0.192612
0.178602
0.165828
0.155216
0.146965
0.140881
0.136608
0.133763
0.131987
0.130971
0.130462
0.130261
0.130232
0.130286
0.130374
0.130471
0.130567
0.130663
0.130762
0.130864
0.13097
0.131072
0.131148
0.131153
0.131011
0.130601
0.129753
0.128273
0.126078
0.123816
0.126204
0.184736
0.315205
0.224928
0.238575
0.24464
0.23849
0.223592
0.204792
0.186044
0.169562
0.15618
0.145908
0.138368
0.13305
0.129453
0.127135
0.125727
0.124935
0.124535
0.12437
0.124334
0.124367
0.124434
0.124521
0.124626
0.124751
0.124903
0.125089
0.125309
0.125557
0.12581
0.126022
0.126115
0.125985
0.125535
0.124842
0.124835
0.131025
0.201162
0.368088
0.262538
0.277044
0.281225
0.26945
0.247153
0.221241
0.196632
0.175705
0.159094
0.146523
0.137354
0.130879
0.126456
0.123544
0.121706
0.120605
0.119984
0.119665
0.119525
0.11949
0.119518
0.119588
0.119695
0.119842
0.120037
0.120293
0.12062
0.121022
0.121494
0.122015
0.122546
0.123036
0.123474
0.124069
0.125996
0.135489
0.21605
0.430919
0.31468
0.329982
0.330794
0.310457
0.277705
0.242367
0.210364
0.184051
0.163657
0.148464
0.137478
0.129735
0.124417
0.120864
0.118566
0.117133
0.116274
0.115786
0.115531
0.115419
0.1154
0.115446
0.11555
0.115713
0.115947
0.116266
0.116689
0.117229
0.117897
0.118694
0.119611
0.120646
0.121857
0.123568
0.127172
0.139567
0.229572
0.513499
0.397196
0.408365
0.400605
0.36554
0.317121
0.268907
0.227427
0.194532
0.16969
0.151512
0.138508
0.129383
0.123103
0.11887
0.116086
0.114302
0.113192
0.112525
0.112144
0.111949
0.111876
0.111893
0.111989
0.112164
0.112431
0.112808
0.113318
0.113985
0.11483
0.115874
0.117134
0.11865
0.12054
0.123227
0.128297
0.143265
0.241886
0.6421
0.549137
0.533967
0.502864
0.44071
0.36801
0.301884
0.248136
0.207166
0.177089
0.155513
0.140278
0.129658
0.122354
0.117406
0.114115
0.111967
0.110594
0.10974
0.109228
0.108942
0.108811
0.108795
0.108879
0.109063
0.109359
0.109789
0.110379
0.111161
0.112167
0.113433
0.115001
0.116944
0.119433
0.122978
0.12934
0.14661
0.253143
0.882214
0.856882
0.746406
0.656098
0.54391
0.433585
0.342521
0.272889
0.222012
0.185786
0.160358
0.142665
0.130437
0.122052
0.116361
0.112545
0.110022
0.108381
0.107335
0.106686
0.106306
0.106113
0.106061
0.10613
0.106319
0.106641
0.107118
0.107781
0.108669
0.109822
0.111289
0.113134
0.115457
0.118477
0.122782
0.13029
0.149635
0.263485
1.38293
1.47531
1.10732
0.884514
0.683949
0.517251
0.392096
0.3021
0.23915
0.195737
0.165963
0.145577
0.13163
0.122111
0.115651
0.111299
0.108394
0.106479
0.105238
0.10445
0.103973
0.103716
0.103624
0.103676
0.103868
0.104212
0.104732
0.105463
0.106447
0.107734
0.109385
0.111478
0.114141
0.117634
0.122613
0.131145
0.152378
0.273044
2.45014
2.56943
1.68559
1.20839
0.868038
0.62188
0.451696
0.33612
0.258643
0.206904
0.172263
0.148945
0.13317
0.122471
0.11522
0.110319
0.107027
0.104838
0.103399
0.102471
0.101896
0.101571
0.10144
0.101472
0.101664
0.102027
0.102586
0.103379
0.104452
0.105861
0.107677
0.109994
0.112963
0.116878
0.122458
0.131912
0.154876
0.281942
5.07918
4.22182
2.49721
1.63053
1.09879
0.748944
0.521905
0.375111
0.280487
0.219234
0.179195
0.152713
0.135008
0.123086
0.115023
0.109566
0.105885
0.103418
0.101781
0.100712
0.100037
0.0996457
0.099472
0.0994834
0.0996728
0.100052
0.100646
0.101496
0.102649
0.10417
0.106136
0.108656
0.111899
0.116192
0.122311
0.132598
0.157165
0.290298
0.287937
0.22211
0.213043
0.209979
0.207275
0.20439
0.201502
0.198862
0.19668
0.19511
0.194255
0.194183
0.194922
0.196474
0.19881
0.201874
0.20558
0.209813
0.214425
0.219237
0.224039
0.228599
0.232665
0.235983
0.23831
0.239431
0.239189
0.237502
0.234391
0.229996
0.224595
0.218611
0.212616
0.207348
0.203783
0.203344
0.208462
0.223876
0.259221
0.336159
0.502463
0.85758
1.50213
2.46447
4.12003
8.7702
0.29926
0.223706
0.21155
0.207375
0.204201
0.201122
0.198157
0.195483
0.193274
0.191666
0.190756
0.190603
0.191231
0.192634
0.194775
0.197589
0.200977
0.204811
0.208931
0.213146
0.217238
0.220967
0.224085
0.226345
0.227522
0.227431
0.225954
0.22306
0.218827
0.213457
0.207279
0.200753
0.19445
0.189061
0.185434
0.18473
0.188843
0.201483
0.230804
0.296578
0.453904
0.863001
1.62095
2.50935
3.79749
6.6623
0.310476
0.224491
0.209007
0.203528
0.19978
0.196478
0.193466
0.190832
0.188697
0.18717
0.186329
0.18622
0.18686
0.188233
0.190292
0.192962
0.196136
0.199673
0.203403
0.207126
0.210615
0.213628
0.21592
0.217253
0.21742
0.216269
0.213722
0.209797
0.204629
0.198479
0.191728
0.184869
0.178479
0.173211
0.169807
0.169204
0.172906
0.183713
0.209187
0.27709
0.440494
0.929525
1.64577
2.72283
3.71361
5.3904
0.321773
0.224736
0.205843
0.198925
0.194487
0.190887
0.187797
0.185206
0.183179
0.181786
0.181081
0.181093
0.181824
0.183247
0.185306
0.187916
0.190957
0.194281
0.197707
0.201024
0.204002
0.206395
0.20796
0.208471
0.207745
0.205657
0.202174
0.197368
0.191435
0.184698
0.177599
0.170673
0.164517
0.159767
0.157102
0.157386
0.161617
0.172145
0.200448
0.339414
0.991005
1.35245
1.78219
2.69911
3.72852
4.54726
0.333268
0.224636
0.202374
0.193937
0.188716
0.184735
0.181507
0.178925
0.176993
0.17574
0.175191
0.175354
0.176215
0.177734
0.179844
0.182447
0.185415
0.188587
0.191773
0.194754
0.197292
0.19914
0.200059
0.199835
0.198306
0.195385
0.191084
0.185539
0.179015
0.171909
0.164732
0.158078
0.15258
0.14888
0.147673
0.149415
0.154842
0.169783
0.499854
0.863023
1.18054
1.57887
1.96305
2.61834
3.73947
3.9889
0.344986
0.224317
0.198802
0.188823
0.182761
0.178337
0.174912
0.172289
0.170415
0.169277
0.168872
0.169183
0.170181
0.17181
0.17399
0.176614
0.179542
0.182603
0.185594
0.188288
0.190441
0.191802
0.192137
0.191245
0.18899
0.185326
0.180323
0.174186
0.167265
0.160046
0.153121
0.147155
0.142824
0.140804
0.141405
0.144818
0.15592
0.52231
0.836774
1.06132
1.3418
1.76107
2.21054
2.68916
3.68495
3.7385
0.356905
0.22386
0.195238
0.183742
0.176825
0.171925
0.16826
0.165553
0.163694
0.162634
0.16234
0.162774
0.16389
0.165618
0.167866
0.170516
0.173417
0.176385
0.179208
0.181649
0.183454
0.184371
0.184169
0.182664
0.179752
0.175433
0.169847
0.163284
0.156193
0.149162
0.142877
0.138072
0.135465
0.135377
0.137784
0.147342
0.500508
0.816143
0.989324
1.1425
1.38684
1.80956
2.37134
2.8843
3.52539
3.685
0.36899
0.223315
0.191737
0.178779
0.171034
0.165657
0.161737
0.158916
0.157037
0.156015
0.155791
0.156311
0.157511
0.15931
0.161607
0.16427
0.167138
0.170018
0.172686
0.174891
0.176374
0.176878
0.176177
0.174108
0.170602
0.165721
0.159684
0.152886
0.145889
0.139393
0.134179
0.13103
0.13038
0.132116
0.139504
0.438453
0.761673
0.919162
1.00399
1.10624
1.31611
1.7299
2.37883
3.08155
3.57361
3.62974
0.381226
0.222718
0.188314
0.173976
0.165461
0.159641
0.155473
0.152528
0.150602
0.149582
0.149388
0.14995
0.151193
0.153026
0.155338
0.15799
0.16081
0.163594
0.166106
0.168086
0.169263
0.169377
0.168211
0.165625
0.161594
0.156253
0.149919
0.143107
0.136504
0.130925
0.127213
0.12599
0.127135
0.132468
0.374807
0.698892
0.855286
0.912903
0.943911
1.01161
1.18694
1.56206
2.21806
3.08354
3.7477
3.70447
0.393644
0.222106
0.184972
0.16935
0.16015
0.153946
0.14956
0.146494
0.144507
0.143459
0.143255
0.143815
0.145055
0.146878
0.149166
0.151773
0.15452
0.157193
0.159543
0.161301
0.162184
0.161931
0.160333
0.157279
0.152801
0.14712
0.14067
0.1341
0.128233
0.123971
0.122095
0.122689
0.125858
0.319288
0.643622
0.808704
0.857759
0.857233
0.856216
0.898273
1.03665
1.3502
1.93779
2.82705
3.73332
4.06567
0.406353
0.221525
0.181702
0.16491
0.155131
0.148619
0.144059
0.140889
0.138831
0.13773
0.13748
0.137993
0.139182
0.140947
0.143167
0.145692
0.148335
0.150876
0.153055
0.15459
0.155192
0.154595
0.152603
0.149141
0.144308
0.138429
0.132073
0.12604
0.121281
0.118737
0.118727
0.121396
0.212833
0.57934
0.776761
0.830803
0.817014
0.783563
0.762937
0.784826
0.88789
1.13342
1.61173
2.39664
3.37682
4.14287
0.419597
0.221042
0.178505
0.160668
0.150434
0.143703
0.13902
0.135763
0.133629
0.132449
0.132114
0.132534
0.133623
0.135281
0.137385
0.139785
0.142292
0.144676
0.146672
0.147987
0.148322
0.147411
0.145072
0.141273
0.136195
0.130285
0.124264
0.119087
0.115794
0.115022
0.116734
0.134305
0.480414
0.730383
0.812954
0.803624
0.756655
0.705852
0.673631
0.68065
0.754102
0.937767
1.3004
1.91687
2.77495
3.66418
0.433821
0.220746
0.1754
0.156661
0.146103
0.13924
0.13448
0.131149
0.128927
0.12764
0.12718
0.12746
0.128398
0.129896
0.131836
0.134066
0.136398
0.1386
0.140401
0.141498
0.141587
0.1404
0.137774
0.133728
0.128538
0.122791
0.117378
0.113384
0.111726
0.112468
0.118029
0.392876
0.676875
0.79265
0.800553
0.754356
0.689998
0.630826
0.592697
0.589999
0.641146
0.775155
1.03765
1.48297
2.12652
2.86953
0.449766
0.220729
0.172444
0.152959
0.1422
0.135275
0.130467
0.127063
0.124732
0.123304
0.122675
0.122767
0.123501
0.124787
0.126509
0.128523
0.13064
0.132632
0.134224
0.13511
0.13498
0.133568
0.130731
0.126547
0.121402
0.116043
0.111537
0.109032
0.108972
0.110846
0.300826
0.628956
0.787189
0.809444
0.767078
0.697458
0.62385
0.561747
0.521906
0.513896
0.549602
0.646907
0.832644
1.138
1.57386
2.08751
0.468548
0.221017
0.169758
0.149677
0.1388
0.131848
0.126994
0.123498
0.121027
0.119418
0.118577
0.118432
0.118912
0.119933
0.121386
0.123133
0.124994
0.126744
0.128113
0.128796
0.128482
0.126908
0.123955
0.119764
0.114846
0.110125
0.106817
0.105874
0.107363
0.128573
0.510088
0.756684
0.823279
0.791509
0.72008
0.637771
0.56092
0.500069
0.461707
0.451639
0.477156
0.54855
0.679401
0.883698
1.16246
1.48177
0.491743
0.22154
0.167561
0.146957
0.135968
0.128972
0.124043
0.120418
0.11777
0.115942
0.114848
0.114424
0.114605
0.115313
0.116449
0.11788
0.11944
0.120914
0.122045
0.122534
0.122076
0.120416
0.11746
0.113418
0.108937
0.105122
0.103223
0.103668
0.107218
0.390754
0.70744
0.826874
0.819904
0.753131
0.665475
0.578581
0.503447
0.44643
0.411396
0.40146
0.420407
0.473721
0.566543
0.702626
0.87696
1.06577
0.521623
0.222583
0.166222
0.144925
0.133718
0.126605
0.121548
0.117756
0.114896
0.11282
0.111446
0.110714
0.110563
0.110922
0.111698
0.112771
0.113987
0.11515
0.116022
0.116323
0.115766
0.114106
0.111275
0.107554
0.103742
0.101102
0.100683
0.102718
0.188347
0.608031
0.816234
0.848138
0.793082
0.703809
0.609202
0.522945
0.452182
0.400553
0.369853
0.36121
0.375987
0.416333
0.48298
0.574296
0.683321
0.79328
0.5619
0.226605
0.166016
0.143591
0.131974
0.124635
0.119397
0.11541
0.112328
0.109998
0.108338
0.10729
0.106795
0.106786
0.107176
0.107859
0.108696
0.109516
0.110107
0.110225
0.109608
0.108037
0.105465
0.10225
0.0993366
0.0979909
0.0987672
0.106362
0.469107
0.781093
0.870856
0.836704
0.750327
0.650082
0.554317
0.471991
0.407305
0.361833
0.335784
0.328863
0.340822
0.37161
0.419999
0.481984
0.550838
0.614837
0.60639
0.233295
0.16643
0.142492
0.130428
0.122876
0.117444
0.113275
0.109995
0.107437
0.105518
0.104174
0.103348
0.102976
0.10298
0.103263
0.103707
0.104165
0.104461
0.104395
0.103752
0.102346
0.10016
0.0976276
0.0957922
0.095735
0.0973396
0.282531
0.694116
0.877488
0.880323
0.802364
0.699042
0.59515
0.502438
0.426283
0.368622
0.329473
0.3079
0.302654
0.312485
0.33607
0.371412
0.413893
0.457776
0.494898
0.643962
0.241113
0.166629
0.141111
0.128705
0.121059
0.115556
0.111271
0.107858
0.105137
0.103014
0.101425
0.100313
0.0996177
0.0992673
0.0991768
0.0992452
0.0993526
0.09936
0.0991166
0.0984701
0.0972843
0.0955821
0.0938803
0.0931939
0.0941582
0.102751
0.512845
0.839458
0.910285
0.853837
0.752637
0.643029
0.541242
0.454636
0.38603
0.335711
0.302602
0.285024
0.281164
0.289226
0.307295
0.332976
0.362237
0.390223
0.411264
0.662134
0.249371
0.165766
0.13909
0.126651
0.119088
0.113648
0.109366
0.105915
0.103116
0.100871
0.0991143
0.0977903
0.0968439
0.0962113
0.0958183
0.0955801
0.0954006
0.0951765
0.0948065
0.0942016
0.0932701
0.092075
0.0912565
0.0916832
0.094202
0.236497
0.706375
0.894801
0.888659
0.80291
0.693705
0.585751
0.490198
0.411643
0.351185
0.308012
0.28036
0.266149
0.263298
0.269784
0.283495
0.301982
0.322009
0.339579
0.350715
0.672046
0.27308
0.163608
0.136472
0.124454
0.117172
0.11187
0.107664
0.10424
0.101432
0.0991398
0.097299
0.0958561
0.0947606
0.0939583
0.0933875
0.0929787
0.0926572
0.0923485
0.0919812
0.0914952
0.0907985
0.0900192
0.0899479
0.0914343
0.109129
0.532248
0.830099
0.890769
0.837585
0.739745
0.63168
0.530317
0.443446
0.37384
0.321481
0.284888
0.261952
0.250444
0.248232
0.253272
0.26348
0.276578
0.289958
0.300522
0.305383
0.746196
0.305179
0.168555
0.135379
0.122713
0.115595
0.110477
0.106382
0.103027
0.10025
0.0979625
0.0961065
0.0946326
0.0934922
0.0926416
0.0920308
0.0915989
0.0912694
0.0910033
0.0907606
0.090515
0.0900802
0.0894926
0.0905881
0.0981603
0.34971
0.700942
0.846736
0.843956
0.771023
0.672395
0.570977
0.478938
0.401842
0.341252
0.296469
0.265675
0.246666
0.237244
0.235356
0.23906
0.246425
0.255436
0.263956
0.269689
0.270481
0.85057
0.348654
0.228872
0.151879
0.12498
0.115948
0.11059
0.10635
0.102658
0.0997704
0.0974706
0.0956288
0.0941876
0.0930919
0.0923167
0.0918365
0.0915793
0.091457
0.0914314
0.0916841
0.0927552
0.0946897
0.0935933
0.10823
0.327772
0.59647
0.771781
0.817402
0.780022
0.700864
0.607062
0.514779
0.433019
0.365725
0.313614
0.27559
0.249731
0.233895
0.226022
0.224214
0.226695
0.231735
0.237602
0.242556
0.244877
0.242985
0.867512
0.408565
0.237584
0.167379
0.138377
0.124501
0.11627
0.110168
0.104726
0.100835
0.0982741
0.0963974
0.0950863
0.0942899
0.0941834
0.095484
0.101655
0.116697
0.135104
0.158335
0.188351
0.227996
0.28768
0.397752
0.566098
0.712605
0.783658
0.776165
0.717994
0.636132
0.5481
0.465066
0.393213
0.335003
0.290458
0.258245
0.236467
0.223132
0.216369
0.214467
0.215839
0.218969
0.222392
0.224702
0.224594
0.220915
0.796179
0.366842
0.237531
0.175756
0.146528
0.131505
0.122817
0.11735
0.114074
0.112542
0.112423
0.1137
0.116562
0.121271
0.128201
0.137911
0.151472
0.170832
0.197691
0.234011
0.282254
0.346096
0.433218
0.546874
0.664702
0.74556
0.764766
0.729057
0.660122
0.578421
0.496581
0.422269
0.359417
0.309239
0.271202
0.243847
0.225372
0.21397
0.207971
0.205858
0.206235
0.207791
0.209296
0.209621
0.207774
0.202925
0.744636
0.338395
0.231905
0.17909
0.15176
0.136926
0.128674
0.124267
0.122467
0.122729
0.124887
0.129047
0.135478
0.144561
0.156823
0.17297
0.193967
0.221177
0.256414
0.301981
0.360326
0.433758
0.521279
0.614805
0.693742
0.734151
0.725563
0.676722
0.605066
0.526882
0.451986
0.385906
0.331065
0.28781
0.255244
0.231871
0.216024
0.206087
0.200587
0.198191
0.197682
0.197936
0.197926
0.196748
0.193647
0.188045
0.73452
0.325275
0.225437
0.179217
0.154884
0.141528
0.134431
0.131327
0.13112
0.133333
0.137854
0.144798
0.154435
0.167162
0.18354
0.204312
0.230458
0.263229
0.304117
0.354903
0.416243
0.487439
0.563707
0.634404
0.684042
0.698903
0.675489
0.622229
0.553058
0.480872
0.413519
0.355196
0.307427
0.270059
0.242023
0.22187
0.208084
0.199237
0.194036
0.191315
0.19002
0.189193
0.187979
0.185655
0.181649
0.175566
0.748482
0.317472
0.218817
0.177378
0.156241
0.145053
0.139718
0.13832
0.139934
0.144165
0.150937
0.160377
0.172753
0.188451
0.208015
0.232115
0.261638
0.2976
0.340823
0.391951
0.450417
0.51349
0.575032
0.625397
0.653775
0.652618
0.621848
0.568992
0.505106
0.440185
0.380511
0.329373
0.287789
0.255381
0.231059
0.21348
0.20129
0.193234
0.188179
0.185112
0.183121
0.181391
0.179214
0.176012
0.171357
0.164987
0.776318
0.312842
0.213364
0.175033
0.156573
0.147559
0.144137
0.144575
0.148057
0.154244
0.163078
0.174686
0.18932
0.207321
0.229204
0.255445
0.28666
0.323453
0.366135
0.414401
0.46666
0.519334
0.566456
0.60035
0.613815
0.602984
0.569381
0.519479
0.462087
0.404725
0.352406
0.307759
0.271521
0.243256
0.221954
0.206413
0.195438
0.187933
0.182909
0.179485
0.176875
0.174387
0.171436
0.167561
0.162445
0.155926
0.810567
0.310343
0.20982
0.17331
0.156745
0.149498
0.147764
0.149877
0.155063
0.163
0.173616
0.187025
0.203433
0.223076
0.246311
0.2735
0.304974
0.340915
0.381112
0.424613
0.46929
0.511482
0.546068
0.567346
0.570718
0.554486
0.520818
0.475136
0.424424
0.374277
0.328684
0.289758
0.258079
0.233249
0.214384
0.200436
0.190368
0.183222
0.17814
0.174355
0.171192
0.168063
0.164486
0.160095
0.15466
0.148091
0.846181
0.30953
0.208364
0.172798
0.157393
0.151372
0.150915
0.15436
0.160931
0.170297
0.182331
0.19708
0.214674
0.235282
0.259101
0.286299
0.31694
0.350852
0.387425
0.425344
0.462336
0.495079
0.519482
0.5315
0.528341
0.509555
0.477447
0.43649
0.392065
0.34846
0.308811
0.274827
0.246995
0.224992
0.208077
0.195359
0.185946
0.179008
0.173798
0.169653
0.165991
0.162316
0.158231
0.153447
0.147802
0.141257
0.880394
0.310721
0.208895
0.173635
0.15881
0.153514
0.153893
0.158261
0.165813
0.176169
0.18917
0.204786
0.223056
0.24404
0.267785
0.294269
0.323321
0.354505
0.38696
0.419233
0.449164
0.473942
0.490454
0.495937
0.488807
0.469297
0.439593
0.403323
0.364604
0.326756
0.292248
0.262471
0.237855
0.218163
0.202798
0.191015
0.182055
0.175204
0.169815
0.165313
0.161201
0.157059
0.152561
0.147482
0.141709
0.135244
0.912543
0.314562
0.211134
0.175667
0.161002
0.156024
0.156829
0.161709
0.16983
0.180765
0.1943
0.21033
0.228801
0.249657
0.272806
0.29806
0.325066
0.35321
0.381514
0.408539
0.432371
0.450745
0.46137
0.462428
0.453115
0.434005
0.407048
0.375154
0.341473
0.30859
0.278463
0.252232
0.230288
0.21248
0.198338
0.187254
0.178588
0.171731
0.166125
0.161275
0.156756
0.152215
0.147383
0.142087
0.136254
0.129909
0.939827
0.319679
0.214168
0.178366
0.163671
0.158761
0.159698
0.164763
0.173098
0.18424
0.19792
0.213962
0.232222
0.252542
0.274709
0.298402
0.323142
0.348217
0.372625
0.395036
0.413829
0.427237
0.433622
0.43183
0.421545
0.403478
0.379307
0.351353
0.322035
0.293381
0.26695
0.243688
0.223958
0.20768
0.1945
0.183929
0.175436
0.168505
0.16266
0.157478
0.152594
0.147713
0.142616
0.137171
0.131331
0.12514
0.960282
0.324146
0.217285
0.181276
0.166508
0.161532
0.162404
0.167409
0.175676
0.186714
0.20021
0.215926
0.233643
0.253117
0.274038
0.295993
0.318423
0.340583
0.361507
0.380018
0.394784
0.404459
0.407894
0.404394
0.393929
0.377232
0.355719
0.331234
0.305648
0.280563
0.257233
0.23645
0.218553
0.203521
0.191098
0.180899
0.172492
0.165445
0.159354
0.15386
0.148655
0.143492
0.138192
0.132654
0.126854
0.120843
0.973986
0.327507
0.220068
0.184048
0.169232
0.164129
0.164813
0.169582
0.177567
0.188259
0.201309
0.216435
0.233357
0.251766
0.271284
0.291438
0.311635
0.331134
0.349045
0.364353
0.375985
0.382929
0.384395
0.379989
0.36984
0.354644
0.335575
0.314103
0.291688
0.269605
0.248873
0.230161
0.213786
0.199775
0.187953
0.178027
0.16965
0.162466
0.156138
0.150365
0.144885
0.139496
0.134051
0.128473
0.122753
0.116944
0.981097
0.329556
0.222248
0.186413
0.171607
0.166359
0.166781
0.171197
0.178745
0.188909
0.201319
0.215658
0.231607
0.248811
0.266851
0.285226
0.303333
0.320469
0.335834
0.348566
0.35781
0.362808
0.363027
0.358263
0.348725
0.335037
0.318172
0.299301
0.279574
0.260018
0.241468
0.224493
0.209393
0.196231
0.1849
0.175182
0.166807
0.159488
0.152949
0.146936
0.141235
0.135675
0.130141
0.124572
0.118968
0.113382
0.981855
0.330184
0.22365
0.188182
0.173447
0.168057
0.168177
0.172164
0.17917
0.188678
0.200309
0.213727
0.228588
0.244512
0.261061
0.277726
0.293923
0.308997
0.322241
0.33293
0.340381
0.344031
0.343519
0.33876
0.329988
0.317752
0.302849
0.286221
0.26878
0.251361
0.234655
0.219154
0.205138
0.1927
0.181785
0.172243
0.16387
0.156439
0.149726
0.143525
0.137659
0.131989
0.126419
0.120906
0.115453
0.110107
0.976624
0.329371
0.224174
0.189228
0.174621
0.169101
0.1689
0.172411
0.178805
0.187574
0.198337
0.210748
0.224457
0.239073
0.254158
0.269213
0.283685
0.296976
0.308464
0.317543
0.323666
0.326407
0.325523
0.320995
0.313058
0.30218
0.289016
0.274326
0.258843
0.243248
0.22812
0.213888
0.200815
0.189015
0.178478
0.169108
0.160757
0.153254
0.146421
0.140092
0.134124
0.128403
0.122853
0.117439
0.112168
0.107079
0.965914
0.327169
0.223791
0.189489
0.175055
0.169417
0.168886
0.171894
0.177636
0.185615
0.195455
0.206815
0.219345
0.23266
0.246332
0.259887
0.27281
0.284561
0.294597
0.302407
0.307548
0.309695
0.308678
0.304516
0.297423
0.287796
0.27617
0.263162
0.249375
0.235358
0.221602
0.208485
0.196257
0.185045
0.174874
0.165695
0.157408
0.149887
0.142996
0.136606
0.130602
0.124892
0.119415
0.114144
0.109083
0.104266
0.950374
0.323691
0.222527
0.188959
0.174725
0.168978
0.168113
0.170604
0.175671
0.182834
0.191727
0.20202
0.213372
0.225414
0.237739
0.249903
0.261435
0.27185
0.280675
0.287475
0.291887
0.293656
0.29266
0.28893
0.282657
0.274171
0.263909
0.252373
0.24007
0.227438
0.214899
0.202787
0.191339
0.180692
0.1709
0.161948
0.15378
0.146307
0.13943
0.133051
0.127079
0.121441
0.116089
0.110999
0.106175
0.101642
0.930754
0.3191
0.220454
0.187677
0.173656
0.167801
0.166598
0.168567
0.172952
0.179291
0.187233
0.196463
0.206658
0.21747
0.228518
0.239395
0.249672
0.258917
0.266716
0.272698
0.276559
0.278092
0.277205
0.27393
0.26843
0.260977
0.251931
0.2417
0.230708
0.21931
0.20787
0.196688
0.185983
0.175902
0.166516
0.157843
0.149857