/*--------------------------------*- C++ -*----------------------------------*\
  =========                 |
  \\      /  F ield         | OpenFOAM: The Open Source CFD Toolbox
   \\    /   O peration     | Website:  https://openfoam.org
    \\  /    A nd           | Version:  7
     \\/     M anipulation  |
\*---------------------------------------------------------------------------*/
FoamFile
{
    version     2.0;
    format      ascii;
    class       volScalarField;
    location    "0.2";
    object      k;
}
// * * * * * * * * * * * * * * * * * * * * * * * * * * * * * * * * * * * * * //

dimensions      [0 2 -2 0 0 0 0];

internalField   nonuniform List<scalar> 
9072
(
0.00355379
0.00720672
0.010936
0.0136712
0.0159034
0.0178109
0.0194982
0.0210307
0.0224539
0.0238019
0.0251014
0.0263747
0.027641
0.028917
0.0302174
0.0315551
0.0329412
0.0343846
0.035892
0.0374672
0.0391108
0.0408193
0.0425852
0.0443961
0.0462345
0.0480779
0.0498982
0.0516621
0.0533312
0.0548626
0.0562084
0.0573166
0.0581307
0.0585893
0.0586223
0.0581438
0.0571243
0.0555664
0.0532493
0.0499511
0.045486
0.0398462
0.0335041
0.0275536
0.0237073
0.02209
0.00600223
0.0155228
0.0223966
0.0276625
0.0318902
0.0354186
0.0384656
0.041175
0.0436456
0.0459495
0.0481427
0.0502705
0.0523707
0.0544752
0.0566108
0.0587998
0.06106
0.0634037
0.0658381
0.0683635
0.0709732
0.0736525
0.0763783
0.0791184
0.0818316
0.0844681
0.0869695
0.0892705
0.0912999
0.0929821
0.0942394
0.0949942
0.0951723
0.0947073
0.0935468
0.0916601
0.0889688
0.0853948
0.0809763
0.0760712
0.0718912
0.0707883
0.0743611
0.0796764
0.0740924
0.0431762
0.00798361
0.0196325
0.0279376
0.0343909
0.0396189
0.0439945
0.0477694
0.0511189
0.0541674
0.057007
0.0597093
0.0623318
0.0649216
0.0675177
0.0701522
0.0728509
0.0756329
0.0785107
0.0814888
0.0845639
0.0877229
0.0909433
0.094192
0.0974251
0.100588
0.103618
0.10644
0.108976
0.111139
0.112842
0.113998
0.114525
0.114352
0.113428
0.111733
0.109295
0.106184
0.102464
0.0981814
0.0932757
0.0878847
0.0836688
0.0843506
0.0919007
0.0947432
0.061055
0.00956087
0.0227097
0.0318865
0.0390511
0.0449047
0.049829
0.0540856
0.0578638
0.061302
0.0645052
0.067555
0.0705169
0.073444
0.0763797
0.0793589
0.0824084
0.0855473
0.0887861
0.0921264
0.0955599
0.0990678
0.10262
0.106175
0.10968
0.113071
0.116272
0.119201
0.12177
0.123884
0.125452
0.126386
0.126609
0.126061
0.124715
0.122591
0.119781
0.116468
0.112908
0.109374
0.105889
0.102064
0.0980511
0.0966481
0.102988
0.111405
0.0738302
0.0108109
0.0252957
0.0351174
0.0427681
0.0490561
0.0543752
0.0589891
0.0630921
0.0668301
0.0703157
0.0736371
0.0768655
0.0800579
0.0832606
0.0865098
0.0898325
0.0932464
0.0967595
0.10037
0.104064
0.107817
0.111592
0.115339
0.118998
0.122496
0.12575
0.12867
0.131161
0.133128
0.134478
0.135128
0.135011
0.134086
0.132354
0.12988
0.12682
0.123456
0.120213
0.117612
0.115957
0.114868
0.113537
0.113024
0.118824
0.129231
0.0839461
0.011874
0.0275292
0.037892
0.0459122
0.0525207
0.0581362
0.0630261
0.0673868
0.0713676
0.075085
0.0786316
0.0820818
0.0854956
0.0889205
0.0923933
0.0959402
0.099577
0.103309
0.10713
0.11102
0.114951
0.118877
0.122743
0.126479
0.130006
0.133235
0.136072
0.138418
0.14018
0.141267
0.141605
0.141142
0.139862
0.137797
0.135056
0.131861
0.12859
0.12582
0.124308
0.124696
0.126907
0.129816
0.132791
0.139468
0.148802
0.093375
0.0127944
0.0294584
0.0403051
0.0486367
0.0554992
0.0613461
0.0664548
0.0710245
0.0752061
0.0791184
0.0828562
0.086496
0.090099
0.0937135
0.0973758
0.101111
0.104932
0.108842
0.112828
0.116869
0.120926
0.124951
0.128879
0.132636
0.136137
0.139288
0.141991
0.144149
0.145669
0.14647
0.146489
0.145694
0.144092
0.141753
0.138831
0.135612
0.132565
0.130412
0.130143
0.132756
0.1386
0.146623
0.154921
0.164086
0.170377
0.102347
0.0135907
0.0311091
0.0423966
0.051011
0.0580905
0.0641279
0.0694158
0.0741583
0.0785086
0.0825868
0.086489
0.0902925
0.0940591
0.0978369
0.101661
0.105555
0.10953
0.113584
0.117701
0.121853
0.125998
0.130079
0.134028
0.137763
0.141195
0.144228
0.146763
0.148703
0.149961
0.150467
0.150173
0.149067
0.147185
0.144632
0.141609
0.138464
0.135753
0.134339
0.135441
0.140426
0.150118
0.163723
0.17843
0.191522
0.194272
0.112658
0.0142742
0.0325023
0.0441902
0.053071
0.0603482
0.0665517
0.0719921
0.0768814
0.0813759
0.0855969
0.0896414
0.0935872
0.0974958
0.101415
0.105378
0.109407
0.113509
0.117678
0.121896
0.126128
0.130327
0.134431
0.138366
0.142046
0.145378
0.148263
0.150604
0.152308
0.153295
0.153507
0.152912
0.151522
0.149401
0.146691
0.143639
0.140647
0.138358
0.137768
0.140324
0.147761
0.161401
0.180791
0.202456
0.220544
0.220396
0.124659
0.0148561
0.0336593
0.0457073
0.0548413
0.0623056
0.068661
0.0742371
0.0792549
0.0838749
0.0882204
0.0923892
0.0964592
0.100491
0.104532
0.108615
0.112756
0.116963
0.121224
0.125517
0.129803
0.134028
0.138127
0.14202
0.145618
0.148824
0.151541
0.153671
0.155128
0.155841
0.155764
0.154886
0.15324
0.150922
0.148105
0.145079
0.1423
0.140486
0.140758
0.144783
0.15466
0.172203
0.197337
0.22611
0.249895
0.248147
0.138019
0.0153499
0.0346042
0.0469706
0.0563438
0.0639874
0.0704866
0.0761876
0.0813213
0.086053
0.0905087
0.0947871
0.098966
0.103106
0.107253
0.111436
0.115673
0.119964
0.124297
0.128643
0.132959
0.137188
0.141258
0.145086
0.14858
0.151643
0.154175
0.156083
0.157288
0.157728
0.157373
0.156229
0.154355
0.151874
0.148991
0.146031
0.143499
0.142177
0.1433
0.148734
0.160921
0.182144
0.212706
0.248345
0.278181
0.276442
0.152319
0.015771
0.0353634
0.0480053
0.0576007
0.0654157
0.0720524
0.0778714
0.0831121
0.0879455
0.0925002
0.0968761
0.101151
0.105386
0.109624
0.113894
0.118209
0.122568
0.126954
0.131334
0.135661
0.139874
0.143896
0.147641
0.151015
0.153918
0.156254
0.157934
0.158885
0.159057
0.158434
0.157044
0.154967
0.152351
0.149431
0.146563
0.144286
0.14344
0.145347
0.152052
0.166294
0.190779
0.22612
0.267912
0.303731
0.303732
0.16697
0.0161355
0.0359648
0.048838
0.0586352
0.0666116
0.0733798
0.0793109
0.0846523
0.0895798
0.0942247
0.0986886
0.10305
0.107368
0.111685
0.116028
0.120408
0.12482
0.129243
0.133641
0.137963
0.142143
0.146101
0.149748
0.152987
0.15572
0.157853
0.1593
0.159998
0.159908
0.15903
0.157409
0.15515
0.152422
0.149485
0.146717
0.144683
0.144261
0.14684
0.154605
0.170538
0.197665
0.236757
0.283391
0.32454
0.327994
0.181195
0.0164584
0.0364352
0.0494949
0.0594707
0.0675959
0.0744883
0.0805261
0.0859627
0.090978
0.0957064
0.10025
0.104689
0.109081
0.113467
0.117872
0.122305
0.126757
0.131204
0.135607
0.13991
0.144043
0.147923
0.15146
0.154554
0.157109
0.159032
0.160245
0.160691
0.160346
0.159224
0.157389
0.154964
0.152141
0.149196
0.146523
0.144701
0.144626
0.14773
0.156292
0.173463
0.20245
0.243866
0.293301
0.338329
0.346767
0.194058
0.0167521
0.0367993
0.0500003
0.0601297
0.0683889
0.0753966
0.0815349
0.0870613
0.0921592
0.0969652
0.101583
0.106092
0.110549
0.114996
0.119454
0.123929
0.12841
0.132871
0.137266
0.141538
0.145613
0.149405
0.152821
0.155762
0.158132
0.159842
0.16082
0.161019
0.160425
0.159069
0.157032
0.154455
0.151546
0.148596
0.146005
0.144351
0.144531
0.147991
0.15705
0.174946
0.204903
0.24697
0.296525
0.342933
0.35712
0.204532
0.0170266
0.0370774
0.0503757
0.0606335
0.0690102
0.0761225
0.0823539
0.0879645
0.0931399
0.0980183
0.102705
0.107277
0.111794
0.116294
0.120797
0.125306
0.129808
0.134271
0.13865
0.142881
0.146888
0.150583
0.15387
0.156651
0.158832
0.160327
0.16107
0.161024
0.160188
0.158607
0.156378
0.153659
0.150672
0.147715
0.145187
0.143654
0.143993
0.147627
0.156846
0.174872
0.204931
0.246818
0.294566
0.338454
0.355962
0.211684
0.00729106
0.0147819
0.0207336
0.0251078
0.0281727
0.0301511
0.0312769
0.0318279
0.0320189
0.0319997
0.0318653
0.031672
0.0314566
0.0312472
0.0310638
0.0309135
0.0307905
0.030685
0.0305895
0.0305005
0.0304164
0.0303356
0.0302555
0.030171
0.0300736
0.0299509
0.0297864
0.0295576
0.029233
0.0287696
0.0281088
0.0271711
0.0258483
0.0239914
0.0213919
0.017746
0.0126216
0.0068963
0.00935908
0.0199115
0.0268274
0.0318572
0.0354499
0.0378072
0.039162
0.0398027
0.0399856
0.0399034
0.039684
0.0394046
0.039111
0.0388314
0.0385825
0.03837
0.0381906
0.0380366
0.037901
0.0377787
0.0376659
0.0375589
0.0374526
0.0373398
0.0372099
0.0370479
0.0368346
0.0365435
0.0361389
0.035573
0.0347815
0.0336779
0.0321451
0.0300213
0.0270776
0.0229694
0.0171071
0.00782525
0.0109815
0.0240222
0.031724
0.0372421
0.0411942
0.0438021
0.0452998
0.0459881
0.0461517
0.0460132
0.0457241
0.0453767
0.0450237
0.0446942
0.0444026
0.0441527
0.0439408
0.0437595
0.0436013
0.04346
0.0433303
0.0432068
0.0430829
0.0429498
0.0427951
0.0426023
0.0423495
0.0420074
0.0415371
0.0408868
0.0399873
0.0387465
0.0370394
0.0346938
0.0314638
0.0269744
0.020517
0.0092606
0.0125713
0.0277274
0.0360643
0.0419274
0.0461
0.0488397
0.0503909
0.0510695
0.0511813
0.0509698
0.0506029
0.0501836
0.0497696
0.0493903
0.0490583
0.0487751
0.0485358
0.0483321
0.0481557
0.0479992
0.0478559
0.0477189
0.0475804
0.0474301
0.0472543
0.047035
0.0467484
0.0463633
0.0458382
0.0451187
0.0441324
0.0427831
0.040941
0.0384266
0.0349832
0.0302101
0.0232921
0.0106226
0.0142158
0.0312936
0.0401916
0.046329
0.0506368
0.0534165
0.0549401
0.0555473
0.0555641
0.0552502
0.0547853
0.0542792
0.0537925
0.0533544
0.0529753
0.0526544
0.0523849
0.0521574
0.0519619
0.0517897
0.0516327
0.0514825
0.0513299
0.0511633
0.0509679
0.0507243
0.0504073
0.0499841
0.0494117
0.0486334
0.0475751
0.0461378
0.0441887
0.0415439
0.0379384
0.0329484
0.0256523
0.0118264
0.0159575
0.0348708
0.0443031
0.0506851
0.0550683
0.0578078
0.0592233
0.0596917
0.0595628
0.0591101
0.0585205
0.0579076
0.0573325
0.0568228
0.0563867
0.0560205
0.0557153
0.0554596
0.055242
0.0550518
0.0548793
0.0547148
0.0545475
0.0543646
0.0541501
0.0538834
0.0535382
0.0530804
0.0524658
0.0516364
0.0505167
0.0490064
0.0469704
0.044222
0.040489
0.0353242
0.0277026
0.0128768
0.0178199
0.0385722
0.0485517
0.0551788
0.0595884
0.0622031
0.0634199
0.0636713
0.0633368
0.0627016
0.061956
0.0612128
0.060531
0.0599354
0.0594307
0.0590102
0.0586623
0.058373
0.0581289
0.0579174
0.057727
0.0575463
0.0573631
0.0571633
0.0569296
0.0566405
0.0562686
0.0557788
0.0551259
0.0542513
0.0530784
0.0515061
0.049398
0.0465649
0.0427278
0.0374151
0.0295033
0.0137952
0.0198197
0.0425434
0.0531291
0.0600208
0.0643924
0.0667691
0.0676703
0.0676075
0.0669943
0.0661247
0.0651862
0.0642864
0.0634781
0.0627812
0.0621958
0.0617114
0.0613131
0.0609842
0.0607089
0.0604723
0.0602611
0.0600621
0.0598614
0.0596437
0.0593904
0.0590792
0.0586816
0.0581618
0.0574739
0.0565586
0.055339
0.0537131
0.0515439
0.0486397
0.0447143
0.0392714
0.0310957
0.0146021
0.0219933
0.0470748
0.0583676
0.0655251
0.069728
0.0716842
0.072104
0.0715988
0.0706161
0.0694497
0.0682761
0.0671901
0.0662342
0.06542
0.0647415
0.0641835
0.0637272
0.0633526
0.0630411
0.0627757
0.0625406
0.0623208
0.0621009
0.0618641
0.0615908
0.0612575
0.0608351
0.0602869
0.0595665
0.0586143
0.0573529
0.0556802
0.0534582
0.0504927
0.0464899
0.0409294
0.0325111
0.0153147
0.0244582
0.0528242
0.0648873
0.0721925
0.0759362
0.0771598
0.0768529
0.0757331
0.0742663
0.0727288
0.0712715
0.0699669
0.0688409
0.0678932
0.0671094
0.0664684
0.0659467
0.0655205
0.0651681
0.0648699
0.0646079
0.064365
0.0641242
0.0638672
0.0635732
0.0632178
0.0627711
0.0621958
0.0614451
0.0604591
0.0591602
0.0574458
0.0551773
0.0521578
0.0480856
0.0424168
0.0337748
0.0159478
0.0275437
0.0612456
0.0737996
0.0807889
0.0834752
0.083448
0.0820572
0.0800931
0.077999
0.0760018
0.0742056
0.0726473
0.0713277
0.0702302
0.0693293
0.0685963
0.0680021
0.0675187
0.067121
0.0667865
0.0664947
0.0662266
0.0659632
0.0656849
0.0653696
0.064992
0.0645215
0.0639203
0.0631411
0.0621238
0.0607907
0.059039
0.0567288
0.0536608
0.0495252
0.043756
0.0349076
0.0165138
0.0320603
0.0752711
0.0869184
0.0923734
0.0929065
0.090832
0.0878622
0.0847568
0.0818603
0.0793
0.0771033
0.0752533
0.0737159
0.0724524
0.0714229
0.0705896
0.0699164
0.0693707
0.0689236
0.0685496
0.0682255
0.06793
0.0676426
0.0673419
0.0670048
0.066605
0.0661111
0.0654849
0.0646788
0.0636325
0.062268
0.0604822
0.0581344
0.0550221
0.0508281
0.0449655
0.0359268
0.017023
0.0397565
0.0998055
0.106802
0.108197
0.104814
0.099591
0.0944062
0.0897953
0.0858897
0.0826489
0.0799837
0.0778018
0.0760219
0.0745762
0.0734072
0.0724657
0.0717074
0.0710946
0.0705945
0.070178
0.0698193
0.0694948
0.0691819
0.068858
0.0684986
0.0680765
0.0675597
0.0669095
0.0660779
0.0650043
0.0636108
0.0617938
0.0594115
0.0562585
0.0520102
0.0460608
0.0368475
0.0174843
0.053777
0.140865
0.136288
0.129403
0.11964
0.10994
0.1018
0.0952672
0.0901202
0.0860696
0.0828632
0.0803072
0.0782594
0.0766155
0.0752966
0.074239
0.0733899
0.0727058
0.0721492
0.0716874
0.0712918
0.0709365
0.0705971
0.0702491
0.0698671
0.0694228
0.0688834
0.0682099
0.067354
0.066255
0.0648345
0.0629886
0.0605743
0.0573836
0.0530848
0.0470552
0.0376824
0.0179054
0.0787194
0.201055
0.177052
0.15624
0.137479
0.12196
0.110102
0.10121
0.094576
0.0895798
0.0857565
0.0827833
0.0804419
0.078584
0.0771046
0.0759231
0.0749776
0.0742178
0.0736012
0.0730914
0.0726567
0.0722689
0.0719016
0.0715289
0.0711238
0.0706572
0.0700957
0.0693997
0.0685205
0.0673973
0.0659515
0.0640787
0.0616348
0.0584089
0.0540633
0.0479598
0.0384421
0.018293
0.127318
0.278141
0.226909
0.187534
0.15794
0.135547
0.119294
0.107629
0.0992669
0.0931902
0.0886751
0.0852422
0.082582
0.0804947
0.0788436
0.0775306
0.0764831
0.0756432
0.0749631
0.0744024
0.0739263
0.073504
0.0731073
0.0727089
0.0722804
0.0717915
0.0712081
0.0704901
0.0695886
0.0684424
0.0669727
0.0650746
0.0626029
0.0593442
0.0549551
0.048784
0.039136
0.0186534
0.0173013
0.037317
0.050703
0.0611098
0.0696357
0.0768896
0.0832529
0.0889857
0.0942751
0.0992603
0.104047
0.108712
0.113314
0.117888
0.122451
0.127003
0.131527
0.135987
0.14033
0.14449
0.148385
0.151926
0.155013
0.15755
0.159445
0.160618
0.161014
0.16061
0.159422
0.157516
0.155013
0.152091
0.148987
0.146005
0.14353
0.142099
0.142527
0.146144
0.155019
0.172271
0.201869
0.245664
0.292849
0.325643
0.333626
0.215312
0.0177527
0.0375476
0.0509405
0.061435
0.0700675
0.0774371
0.0839196
0.0897718
0.0951785
0.100277
0.105172
0.109938
0.11463
0.119279
0.123899
0.128484
0.13301
0.137436
0.141703
0.145739
0.149457
0.152762
0.155556
0.157743
0.159235
0.159964
0.159889
0.159006
0.157357
0.155035
0.152189
0.149021
0.145781
0.142767
0.140334
0.13894
0.139249
0.142337
0.150141
0.166035
0.195516
0.248077
0.300173
0.318183
0.307942
0.202595
0.0181943
0.0376853
0.0510098
0.0615035
0.0701596
0.0775736
0.0841166
0.0900406
0.0955261
0.100707
0.105683
0.110526
0.115286
0.119991
0.124647
0.129245
0.133754
0.138127
0.1423
0.146192
0.149715
0.152769
0.155256
0.15708
0.158162
0.158443
0.157899
0.156548
0.154457
0.151749
0.1486
0.145238
0.141927
0.138958
0.136652
0.135391
0.135715
0.138536
0.145748
0.162577
0.193947
0.259811
0.304054
0.311371
0.293558
0.181357
0.0186338
0.0377789
0.0509834
0.0614008
0.0700046
0.0773943
0.0839385
0.0898843
0.095407
0.100635
0.105663
0.110559
0.115365
0.120105
0.12478
0.129375
0.133852
0.138157
0.142221
0.145959
0.149274
0.152067
0.154236
0.155691
0.156357
0.156191
0.155185
0.153381
0.150878
0.14783
0.14445
0.140992
0.137741
0.134992
0.133044
0.132247
0.133004
0.135997
0.143643
0.173688
0.270206
0.300865
0.311784
0.306289
0.282924
0.157063
0.0190757
0.0378617
0.0509171
0.0611974
0.0696837
0.076987
0.0834762
0.0893945
0.0949116
0.10015
0.105198
0.110118
0.114947
0.119701
0.124377
0.128951
0.133382
0.137608
0.141553
0.145125
0.148225
0.150747
0.152593
0.153673
0.153923
0.153312
0.151856
0.149627
0.146757
0.143445
0.139943
0.136545
0.133564
0.131305
0.130077
0.13007
0.131466
0.135323
0.199465
0.255716
0.286987
0.311611
0.315328
0.305023
0.249167
0.140084
0.0195212
0.0379559
0.050848
0.0609455
0.0692628
0.0764283
0.0828138
0.0886593
0.0941295
0.0993409
0.104376
0.10929
0.114114
0.118859
0.123515
0.128052
0.132422
0.136556
0.140371
0.143769
0.146646
0.148892
0.150408
0.151111
0.150945
0.149899
0.148015
0.145402
0.142237
0.13877
0.135304
0.132182
0.129747
0.128326
0.128048
0.128886
0.131707
0.209065
0.263636
0.288626
0.305962
0.323101
0.32614
0.30702
0.213104
0.133143
0.0199692
0.0380749
0.050799
0.0606816
0.0687928
0.0757821
0.0820253
0.0877599
0.0931462
0.0982952
0.103283
0.10816
0.112951
0.117662
0.122275
0.126756
0.131048
0.135077
0.138751
0.141967
0.144613
0.146578
0.147762
0.148086
0.14751
0.146045
0.143768
0.140832
0.137473
0.133999
0.130777
0.128197
0.12663
0.126223
0.126865
0.129398
0.20982
0.272844
0.297451
0.306174
0.313508
0.325302
0.333002
0.316668
0.235152
0.132767
0.0204185
0.0382279
0.0507834
0.0604306
0.0683126
0.0751006
0.081174
0.0867685
0.09204
0.097095
0.102005
0.106813
0.111542
0.11619
0.120737
0.125139
0.129336
0.133245
0.136767
0.139792
0.142202
0.143882
0.144731
0.144681
0.143707
0.141849
0.139229
0.136056
0.132633
0.129342
0.126611
0.124868
0.124335
0.124871
0.127007
0.200236
0.271073
0.300233
0.30663
0.3054
0.307011
0.31698
0.330768
0.328402
0.270869
0.141136
0.0208687
0.0384221
0.0508101
0.060211
0.0678528
0.0744264
0.0803136
0.0857474
0.0908801
0.0958137
0.100616
0.105326
0.109963
0.114521
0.118974
0.123276
0.127358
0.131131
0.13449
0.137316
0.139484
0.140876
0.141394
0.140977
0.139624
0.137414
0.134519
0.131221
0.127902
0.125017
0.123042
0.122324
0.12274
0.124465
0.18779
0.262977
0.297009
0.30506
0.300788
0.294179
0.292655
0.300903
0.317744
0.329764
0.300915
0.183301
0.021321
0.0386657
0.0508871
0.0600386
0.0674396
0.0737963
0.07949
0.0847502
0.0897255
0.0945145
0.099182
0.103766
0.10828
0.112719
0.117052
0.121229
0.125176
0.128798
0.131983
0.134602
0.136526
0.137631
0.137823
0.137055
0.135354
0.132846
0.12977
0.12649
0.123474
0.121241
0.120247
0.120505
0.121738
0.174413
0.252743
0.291855
0.302559
0.29825
0.288028
0.278492
0.274769
0.280637
0.296947
0.316961
0.315611
0.252638
0.0217796
0.0389701
0.0510247
0.0599307
0.0670985
0.0732436
0.0787433
0.0838223
0.0886255
0.0932493
0.0977568
0.102185
0.106548
0.110838
0.115023
0.11905
0.122842
0.126297
0.129296
0.131704
0.133383
0.134207
0.134087
0.132992
0.130986
0.128253
0.125113
0.122024
0.119541
0.118218
0.118226
0.119364
0.143534
0.236377
0.28538
0.300372
0.297355
0.286035
0.272572
0.26143
0.256183
0.259685
0.273431
0.294963
0.311197
0.298092
0.0222533
0.0393524
0.0512396
0.0599091
0.0668571
0.0728006
0.0781092
0.0830016
0.0876194
0.0920579
0.0963805
0.100625
0.104806
0.108916
0.112925
0.116776
0.12039
0.123662
0.126466
0.12866
0.130099
0.130655
0.130243
0.128856
0.126603
0.123738
0.120676
0.117976
0.116256
0.115893
0.116693
0.121453
0.210021
0.272407
0.295972
0.297007
0.286526
0.271541
0.256556
0.244818
0.238862
0.240679
0.251555
0.27095
0.293495
0.307919
0.022758
0.0398423
0.0515588
0.0600042
0.0667476
0.0724998
0.0776193
0.0823184
0.0867361
0.0909681
0.0950796
0.0991108
0.103079
0.106978
0.11078
0.114428
0.117843
0.120916
0.123516
0.125496
0.126704
0.12701
0.126339
0.124709
0.122284
0.119402
0.116587
0.114486
0.113665
0.114102
0.115869
0.18682
0.256696
0.288569
0.295447
0.287919
0.273256
0.256536
0.24121
0.229749
0.223945
0.22506
0.233868
0.250293
0.272377
0.295481
0.0233191
0.040491
0.052025
0.0602553
0.0668052
0.0723715
0.0772988
0.0817932
0.0859927
0.0899947
0.0938677
0.0976553
0.101379
0.105035
0.108598
0.112016
0.115207
0.118065
0.120454
0.122223
0.123216
0.123301
0.122412
0.120602
0.118098
0.115338
0.112959
0.111663
0.111725
0.112659
0.16227
0.241452
0.282692
0.294221
0.28971
0.276423
0.259305
0.242035
0.227243
0.216774
0.211847
0.213165
0.220981
0.235072
0.254468
0.276918
0.0239737
0.0413774
0.0526941
0.0607057
0.0670619
0.0724374
0.077161
0.0814332
0.0853923
0.089139
0.0927456
0.0962601
0.0997075
0.10309
0.106384
0.109542
0.112486
0.11511
0.117281
0.118846
0.119644
0.119545
0.118494
0.116581
0.11411
0.111629
0.109877
0.109443
0.110147
0.115422
0.209175
0.270031
0.292142
0.291884
0.280447
0.263696
0.245459
0.2286
0.215038
0.206075
0.202471
0.204548
0.212126
0.224674
0.241281
0.260236
0.0247722
0.0425924
0.0536182
0.0613852
0.0675321
0.0727
0.0771997
0.0812273
0.0849225
0.0883894
0.0917045
0.0949196
0.0980638
0.101143
0.104139
0.107009
0.10968
0.112054
0.114
0.115367
0.115997
0.11576
0.114615
0.112695
0.110387
0.108362
0.107393
0.107705
0.108854
0.177644
0.252402
0.286217
0.292962
0.284728
0.26902
0.250562
0.232373
0.216596
0.204675
0.19748
0.195383
0.198384
0.205986
0.217377
0.231482
0.246627
0.0257852
0.0441872
0.0548005
0.0622819
0.0681929
0.0731293
0.0773821
0.0811434
0.084555
0.0877242
0.0907302
0.0936277
0.0964487
0.0992029
0.101877
0.104434
0.10681
0.108914
0.110626
0.111803
0.112293
0.111972
0.110813
0.108993
0.106998
0.1056
0.105458
0.106339
0.126838
0.22423
0.276228
0.29228
0.288639
0.274856
0.256736
0.237787
0.220376
0.206132
0.196073
0.190683
0.190015
0.193797
0.201325
0.211581
0.223364
0.235016
0.0271153
0.0460442
0.0561942
0.0633266
0.0689663
0.0736551
0.0776458
0.0811297
0.0842502
0.0871166
0.0898096
0.0923846
0.0948752
0.0972941
0.0996326
0.10186
0.103923
0.105742
0.107211
0.108204
0.108584
0.108236
0.107148
0.105545
0.104011
0.103342
0.10378
0.105656
0.188982
0.260799
0.289087
0.291628
0.280727
0.263554
0.244326
0.225747
0.209645
0.197199
0.189037
0.185316
0.185824
0.190077
0.197276
0.206274
0.215849
0.224445
0.0285242
0.0480724
0.0577001
0.0644484
0.0697698
0.0741737
0.0779098
0.0811263
0.083968
0.0865461
0.0889405
0.0912061
0.0933768
0.0954672
0.0974728
0.0993697
0.101114
0.102642
0.103865
0.104682
0.104978
0.104656
0.103721
0.102449
0.101492
0.101548
0.102278
0.145778
0.235696
0.281726
0.293032
0.286084
0.270537
0.251541
0.232233
0.214683
0.200245
0.189696
0.183323
0.181017
0.18237
0.186754
0.193352
0.200987
0.208492
0.214489
0.0296612
0.0501305
0.0591374
0.0654881
0.0704926
0.0746172
0.0780988
0.0810839
0.0836823
0.0860076
0.0881387
0.0901286
0.092011
0.0938021
0.0955008
0.0970892
0.0985336
0.0997836
0.100773
0.101426
0.101663
0.101411
0.100696
0.0998501
0.0995248
0.100003
0.101995
0.192813
0.265258
0.290295
0.289656
0.276885
0.258847
0.23935
0.220795
0.204751
0.192165
0.18347
0.178677
0.177478
0.179341
0.183572
0.189341
0.195587
0.20121
0.205046
0.0301628
0.052075
0.0603937
0.0663623
0.0710704
0.0749392
0.0781946
0.0809808
0.0833849
0.0855084
0.0874281
0.0891947
0.0908413
0.0923861
0.0938309
0.0951637
0.0963596
0.0973813
0.098183
0.0987162
0.0989369
0.0987934
0.0983226
0.097932
0.0981844
0.0990556
0.131937
0.232148
0.278668
0.288725
0.281053
0.265291
0.246443
0.227479
0.210287
0.196038
0.185339
0.178344
0.17486
0.174455
0.176535
0.180389
0.185218
0.190108
0.194067
0.196137
0.030512
0.0550144
0.0618365
0.067256
0.0716424
0.0752362
0.0782667
0.0808663
0.0831099
0.0850774
0.0868388
0.0884417
0.0899194
0.0912913
0.0925629
0.0937288
0.0947722
0.0956677
0.0963858
0.0968934
0.0971637
0.0971405
0.0968718
0.0968296
0.097404
0.101706
0.194863
0.259822
0.281793
0.281387
0.269629
0.252647
0.234118
0.216382
0.200919
0.188565
0.179654
0.17413
0.171669
0.171771
0.17383
0.17716
0.181022
0.184634
0.187154
0.187798
0.0328595
0.0565104
0.0623233
0.0677803
0.0723065
0.0756672
0.0784742
0.0808925
0.0829914
0.0848232
0.0864613
0.0879493
0.0893214
0.0905956
0.091779
0.092872
0.0938629
0.0947287
0.0954613
0.0960397
0.0964539
0.0965882
0.0963801
0.096763
0.098876
0.160731
0.234178
0.26932
0.277357
0.270934
0.257097
0.240029
0.222515
0.206398
0.192803
0.182288
0.17497
0.170651
0.168934
0.1693
0.171162
0.173884
0.176805
0.179254
0.180548
0.18005
0.0357691
0.0594644
0.0693031
0.0691046
0.0723463
0.0757007
0.0785048
0.0809553
0.0831024
0.0848506
0.0863896
0.0877968
0.0891153
0.0903612
0.0915454
0.0926814
0.0937665
0.0947737
0.0956198
0.096357
0.097168
0.0979731
0.0975382
0.101506
0.158719
0.217479
0.25607
0.270696
0.269714
0.259633
0.244821
0.22827
0.212103
0.19773
0.185957
0.177105
0.171129
0.167744
0.166522
0.166958
0.168501
0.17058
0.172614
0.174035
0.174295
0.172889
0.0361127
0.0631171
0.0658472
0.0686617
0.0728976
0.0769966
0.0804156
0.0828981
0.0842297
0.0854343
0.086834
0.0882154
0.0895885
0.0909639
0.0924394
0.0943595
0.0983818
0.106042
0.113797
0.122118
0.131493
0.142618
0.157727
0.182743
0.21959
0.250449
0.267037
0.269362
0.262024
0.249189
0.233778
0.217922
0.203148
0.190445
0.180316
0.172879
0.167975
0.165269
0.164333
0.164689
0.165838
0.167271
0.168489
0.169018
0.168418
0.166294
0.0340204
0.0565793
0.0631592
0.0682797
0.0735559
0.07849
0.0827619
0.0863596
0.0895425
0.092589
0.0956097
0.0987327
0.102122
0.105916
0.110246
0.115279
0.121393
0.129252
0.13903
0.150837
0.164831
0.181425
0.201889
0.226239
0.2502
0.266444
0.271313
0.266199
0.254653
0.239929
0.22425
0.20916
0.195701
0.184484
0.175752
0.169459
0.165365
0.163114
0.162294
0.162463
0.163174
0.163983
0.164463
0.164221
0.162912
0.160236
0.0325792
0.0519502
0.0615552
0.0685844
0.0748209
0.0804596
0.0855663
0.0902433
0.0946489
0.0989491
0.10331
0.107927
0.112997
0.118697
0.125191
0.132645
0.141257
0.151297
0.163056
0.176811
0.192721
0.210801
0.23044
0.249776
0.265053
0.272428
0.270574
0.261215
0.247332
0.231696
0.216162
0.201916
0.189657
0.179708
0.172108
0.166695
0.163176
0.161193
0.160356
0.160264
0.16052
0.160739
0.160558
0.159658
0.157768
0.154671
0.0323199
0.0499198
0.0613174
0.0697081
0.0768267
0.0832087
0.0891105
0.0947037
0.100144
0.105589
0.11121
0.117185
0.123688
0.130883
0.138927
0.147979
0.158202
0.169768
0.182839
0.197548
0.213682
0.230723
0.247413
0.261603
0.270594
0.272312
0.266529
0.254943
0.240096
0.224367
0.209357
0.196024
0.184842
0.175942
0.169225
0.164453
0.161309
0.159442
0.158488
0.158088
0.157889
0.157559
0.156793
0.155333
0.15297
0.149555
0.0327555
0.0497548
0.0621765
0.0714452
0.0792799
0.0863728
0.0930535
0.0995185
0.105922
0.112411
0.119139
0.126261
0.133925
0.142271
0.151434
0.161536
0.172705
0.185033
0.198504
0.213011
0.228142
0.243052
0.256333
0.26612
0.27058
0.268648
0.260617
0.248068
0.233161
0.217909
0.203689
0.191298
0.181068
0.173013
0.166958
0.162624
0.15969
0.157819
0.156676
0.155938
0.155294
0.15446
0.15318
0.151246
0.148503
0.144852
0.0335803
0.0508363
0.0638101
0.0735651
0.0819122
0.0896036
0.0969796
0.104229
0.111488
0.118886
0.126547
0.134601
0.14317
0.152361
0.162292
0.173016
0.184589
0.197012
0.210171
0.223779
0.237267
0.249702
0.259784
0.266051
0.267304
0.263067
0.253878
0.24116
0.226752
0.212317
0.19903
0.18756
0.178152
0.170762
0.165181
0.161119
0.158262
0.156295
0.15491
0.153819
0.152749
0.151455
0.149725
0.147394
0.144348
0.140529
0.0345704
0.052606
0.0658889
0.075897
0.0845881
0.0927369
0.100674
0.10857
0.11654
0.124683
0.133093
0.141875
0.151117
0.160879
0.17123
0.182201
0.193777
0.205872
0.21828
0.230612
0.24224
0.252271
0.259612
0.263182
0.262228
0.256624
0.247
0.234614
0.221017
0.207565
0.195252
0.184643
0.175932
0.169051
0.163788
0.159864
0.156981
0.154849
0.153187
0.151738
0.150262
0.148552
0.14643
0.143768
0.140485
0.136556
0.03558
0.054668
0.0681686
0.0783358
0.0872613
0.0957354
0.104085
0.112467
0.120977
0.129691
0.138658
0.147947
0.157617
0.167703
0.178227
0.189171
0.200465
0.211959
0.223382
0.234303
0.244105
0.252001
0.257122
0.2587
0.256294
0.24998
0.240401
0.228649
0.216005
0.203584
0.192219
0.182389
0.174257
0.167756
0.162688
0.158798
0.155812
0.153464
0.151503
0.149698
0.147841
0.145755
0.143294
0.140358
0.136895
0.132901
0.0365343
0.0567682
0.0704948
0.0808123
0.0899107
0.0986033
0.107227
0.115932
0.124799
0.133878
0.143204
0.152809
0.162713
0.172922
0.183415
0.194131
0.204957
0.215696
0.226046
0.235576
0.243722
0.249826
0.253222
0.253387
0.250091
0.243521
0.234289
0.223324
0.211678
0.200267
0.189787
0.180646
0.17299
0.166764
0.161798
0.157864
0.154718
0.152122
0.14985
0.147698
0.145486
0.143063
0.14031
0.137151
0.133554
0.129535
0.0374193
0.0587635
0.0727693
0.0832573
0.0924891
0.101312
0.110085
0.118966
0.128029
0.137308
0.146817
0.15656
0.166528
0.176691
0.186994
0.197342
0.207587
0.217507
0.226795
0.235044
0.241765
0.246425
0.248531
0.24774
0.243964
0.237443
0.228731
0.218614
0.207947
0.197485
0.187808
0.179269
0.172002
0.165972
0.161039
0.157008
0.153666
0.150802
0.148217
0.145733
0.143194
0.140471
0.137469
0.134131
0.130443
0.12643
0.0381596
0.0605452
0.0749061
0.0855858
0.094931
0.103827
0.112658
0.121598
0.13072
0.140052
0.149593
0.159323
0.169208
0.179189
0.189184
0.199071
0.20868
0.217781
0.226076
0.233199
0.238737
0.242272
0.243449
0.242054
0.238088
0.231808
0.223705
0.214433
0.204689
0.195095
0.186138
0.178121
0.171174
0.165282
0.160335
0.156174
0.152616
0.149478
0.146589
0.143792
0.140955
0.13797
0.134759
0.131283
0.127538
0.12356
0.0387091
0.0621049
0.0768377
0.0877182
0.0971646
0.106095
0.11492
0.123829
0.132905
0.142171
0.151617
0.16121
0.170893
0.180589
0.190193
0.199565
0.208524
0.216844
0.224245
0.230408
0.234994
0.237679
0.238214
0.236476
0.232519
0.226595
0.219129
0.210665
0.20177
0.192958
0.184638
0.177075
0.170395
0.164601
0.159614
0.155306
0.151528
0.148123
0.144945
0.141861
0.138758
0.135546
0.132166
0.128588
0.12482
0.120899
0.0390742
0.0634088
0.0785028
0.0895816
0.0991188
0.108058
0.116832
0.125646
0.134593
0.143701
0.152956
0.162313
0.171705
0.18104
0.190198
0.19903
0.207355
0.214952
0.22157
0.226935
0.23077
0.232832
0.232946
0.231053
0.227235
0.221725
0.214889
0.207176
0.19905
0.190936
0.18318
0.176015
0.169562
0.163842
0.158804
0.154349
0.150358
0.146703
0.143261
0.13992
0.136586
0.133186
0.129674
0.12603
0.122266
0.118424
0.0392617
0.0644305
0.0798529
0.0911153
0.10073
0.109658
0.118348
0.127022
0.135783
0.144666
0.153656
0.162706
0.171742
0.180664
0.189345
0.197635
0.205354
0.212297
0.218241
0.222951
0.226207
0.227823
0.227683
0.225766
0.222165
0.217092
0.210858
0.203832
0.196396
0.188903
0.181646
0.174834
0.168583
0.162927
0.157839
0.15325
0.149067
0.145188
0.141513
0.137951
0.134424
0.130875
0.127267
0.12359
0.119859
0.116114
0.0392792
0.065154
0.0808549
0.0922747
0.101949
0.110847
0.119429
0.12793
0.136464
0.145073
0.153748
0.162442
0.171078
0.179556
0.187748
0.195505
0.202657
0.209016
0.214383
0.218563
0.221377
0.222685
0.22241
0.220554
0.217215
0.212578
0.206905
0.200503
0.193684
0.186745
0.179936
0.173443
0.167378
0.161786
0.156663
0.151961
0.147615
0.143547
0.139677
0.135934
0.132256
0.128597
0.124931
0.121253
0.11758
0.113949
0.0391368
0.0655749
0.0814917
0.0930327
0.102742
0.11159
0.120044
0.128349
0.136628
0.144932