/*--------------------------------*- C++ -*----------------------------------*\
  =========                 |
  \\      /  F ield         | OpenFOAM: The Open Source CFD Toolbox
   \\    /   O peration     | Website:  https://openfoam.org
    \\  /    A nd           | Version:  7
     \\/     M anipulation  |
\*---------------------------------------------------------------------------*/
FoamFile
{
    version     2.0;
    format      ascii;
    class       volScalarField;
    location    "0.2";
    object      nut;
}
// * * * * * * * * * * * * * * * * * * * * * * * * * * * * * * * * * * * * * //

dimensions      [0 2 -1 0 0 0 0];

internalField   nonuniform List<scalar> 
9072
(
2.71891e-05
2.85285e-05
3.51702e-05
3.93361e-05
4.24357e-05
4.49166e-05
4.70029e-05
4.88219e-05
5.04537e-05
5.19528e-05
5.3359e-05
5.47023e-05
5.60066e-05
5.72907e-05
5.85701e-05
5.9857e-05
6.11608e-05
6.24884e-05
6.38436e-05
6.52276e-05
6.66387e-05
6.80718e-05
6.9519e-05
7.09693e-05
7.24084e-05
7.38197e-05
7.51836e-05
7.64782e-05
7.76795e-05
7.87614e-05
7.96959e-05
8.04525e-05
8.09979e-05
8.1295e-05
8.12989e-05
8.09494e-05
8.02432e-05
7.9144e-05
7.74807e-05
7.50484e-05
7.16143e-05
6.70053e-05
6.139e-05
5.5616e-05
5.2019e-05
5.05396e-05
5.4994e-05
0.00019574
0.000279911
0.000338685
0.000382187
0.000415909
0.000443125
0.000465881
0.000485504
0.000502904
0.000518728
0.000533447
0.000547414
0.000560884
0.000574038
0.00058699
0.000599792
0.000612438
0.000624866
0.00063696
0.000648556
0.000659449
0.000669402
0.000678152
0.000685424
0.000690939
0.000694417
0.00069559
0.0006942
0.000690006
0.000682779
0.000672302
0.000658363
0.000640763
0.000619305
0.000593749
0.000559635
0.000510509
0.000448273
0.00037869
0.00031419
0.000270047
0.000252784
0.000256628
0.000259304
0.000148072
6.34417e-05
0.000296223
0.000472504
0.000609523
0.000719675
0.0008106
0.000887517
0.000954097
0.00101298
0.0010661
0.00111492
0.00116056
0.00120385
0.00124543
0.00128571
0.00132495
0.00136325
0.00140053
0.00143658
0.00147104
0.00150344
0.00153321
0.00155972
0.00158229
0.00160025
0.00161293
0.00161973
0.00162008
0.00161348
0.00159952
0.00157784
0.00154814
0.00151018
0.00146378
0.00140882
0.00134514
0.00126947
0.00117222
0.00104914
0.000897244
0.00072381
0.000560034
0.000448986
0.000408536
0.000401922
0.000175894
6.9472e-05
0.000354979
0.000600026
0.000804471
0.000977879
0.00112716
0.00125769
0.00137365
0.00147824
0.001574
0.00166287
0.00174642
0.00182582
0.00190198
0.0019755
0.00204672
0.00211573
0.00218236
0.00224623
0.00230673
0.00236307
0.00241434
0.00245952
0.00249756
0.00252742
0.0025481
0.00255869
0.00255841
0.00254658
0.00252271
0.0024864
0.00243743
0.00237569
0.00230123
0.00221426
0.00211505
0.00200173
0.00186644
0.00170364
0.00150439
0.00126172
0.000991791
0.000754152
0.000617004
0.000558042
0.00019392
7.38954e-05
0.000395961
0.000691258
0.000949582
0.00117719
0.00137923
0.00156034
0.00172445
0.00187482
0.00201412
0.00214449
0.00226768
0.00238504
0.00249759
0.00260599
0.00271061
0.00281147
0.00290829
0.00300051
0.0030873
0.00316761
0.00324024
0.00330386
0.00335712
0.00339868
0.00342729
0.00344182
0.00344131
0.00342501
0.00339237
0.00334309
0.00327709
0.00319451
0.00309581
0.00298172
0.00285318
0.00270949
0.00254533
0.00235606
0.00213086
0.00185393
0.00152082
0.00117382
0.000908614
0.000740483
0.000206856
7.74593e-05
0.000428381
0.000762098
0.00106313
0.00133583
0.00158373
0.00181039
0.00201914
0.00221292
0.00239424
0.0025652
0.00272751
0.00288253
0.00303125
0.00317431
0.00331201
0.00344426
0.00357065
0.00369045
0.00380264
0.00390596
0.00399896
0.00408011
0.00414781
0.00420052
0.00423678
0.00425533
0.0042551
0.00423528
0.00419538
0.00413521
0.00405491
0.00395502
0.00383646
0.00370066
0.00354942
0.00338315
0.00319901
0.00299349
0.00275485
0.00246159
0.00209436
0.0016692
0.00127147
0.00094553
0.000218376
8.04176e-05
0.000455584
0.000820315
0.00115578
0.00146583
0.00175301
0.0020199
0.00226909
0.00250301
0.00272383
0.00293339
0.00313326
0.00332462
0.00350836
0.003685
0.00385467
0.00401717
0.00417194
0.00431808
0.00445439
0.00457945
0.00469164
0.00478925
0.00487053
0.00493377
0.00497741
0.00500007
0.00500062
0.00497829
0.00493265
0.00486369
0.00477186
0.0046581
0.00452396
0.00437163
0.00420385
0.00402223
0.00382598
0.00361237
0.0033679
0.00306543
0.00267492
0.00219188
0.0016747
0.00116587
0.000228666
8.28914e-05
0.000478764
0.000869562
0.00123353
0.00157481
0.00189558
0.00219772
0.00248315
0.00275371
0.00301111
0.00325685
0.00349219
0.00371811
0.00393524
0.00414393
0.00434413
0.00453545
0.00471716
0.00488822
0.00504727
0.00519275
0.00532292
0.00543594
0.00552995
0.00560314
0.00565388
0.00568073
0.00568257
0.00565867
0.00560873
0.00553298
0.0054322
0.00530783
0.00516204
0.00499785
0.00481902
0.00462823
0.00442631
0.00421042
0.00396381
0.00365274
0.00323939
0.00270684
0.00208687
0.0013937
0.000239592
8.49569e-05
0.000498366
0.000911589
0.00129981
0.00166764
0.00201731
0.00235033
0.00266807
0.00297182
0.00326281
0.00354213
0.00381067
0.00406909
0.00431777
0.00455678
0.00478586
0.00500442
0.00521156
0.00540606
0.00558645
0.00575105
0.00589802
0.00602543
0.00613136
0.00621394
0.00627151
0.00630261
0.00630618
0.00628156
0.00622866
0.00614794
0.00604058
0.00590852
0.0057546
0.00558265
0.00539738
0.00520244
0.00499961
0.00478483
0.00453643
0.00421348
0.00377354
0.00319424
0.00248555
0.00162011
0.000251864
8.66762e-05
0.000514624
0.000947377
0.0013567
0.00174753
0.00212235
0.00248254
0.00282907
0.00316279
0.00348446
0.00379473
0.00409411
0.00438289
0.00466114
0.00492863
0.00518486
0.00542901
0.00566
0.00587646
0.0060768
0.00625923
0.00642184
0.00656265
0.0066797
0.00677111
0.00683519
0.00687056
0.0068762
0.00685162
0.0067969
0.00671283
0.006601
0.00646386
0.00630487
0.00612861
0.00594064
0.00574534
0.00554466
0.00533219
0.00507985
0.00473981
0.0042685
0.00364328
0.00285677
0.00183671
0.000264986
8.81086e-05
0.000527793
0.000977662
0.0014057
0.00181682
0.0022138
0.00259803
0.00297027
0.003331
0.00368058
0.00401925
0.0043471
0.00466407
0.00496986
0.00526394
0.00554553
0.00581359
0.00606684
0.00630375
0.00652263
0.00672161
0.00689872
0.00705194
0.0071793
0.00727894
0.00734919
0.00738874
0.0073967
0.00737274
0.00731719
0.00723117
0.00711669
0.00697668
0.00681519
0.00663744
0.00644961
0.00625656
0.00605958
0.00584887
0.00558898
0.00522604
0.00471849
0.00404706
0.00319102
0.00203621
0.00027853
8.93125e-05
0.000538211
0.00100316
0.00144802
0.00187731
0.00229405
0.00269972
0.00309498
0.00348007
0.00385498
0.0042196
0.00457363
0.00491661
0.0052479
0.00556664
0.00587178
0.00616203
0.00643592
0.00669178
0.0069278
0.00714203
0.00733247
0.00749709
0.00763392
0.00774112
0.00781712
0.00786067
0.00787105
0.00784814
0.00779254
0.00770573
0.00759011
0.00744908
0.00728716
0.00711006
0.00692437
0.00673512
0.00654213
0.00633152
0.00605984
0.00566823
0.00511915
0.00439948
0.00347998
0.0022118
0.000292026
9.03423e-05
0.000546293
0.00102459
0.00148475
0.00193053
0.00236506
0.00278999
0.00320595
0.003613
0.00401088
0.00439913
0.0047771
0.00514396
0.00549872
0.00584021
0.00616707
0.00647778
0.00677068
0.00704395
0.00729567
0.00752385
0.00772644
0.0079014
0.0080468
0.00816085
0.00824206
0.00828932
0.00830209
0.00828048
0.00822541
0.0081387
0.00802315
0.00788257
0.00772182
0.00754689
0.00736453
0.00717974
0.00699007
0.00677728
0.00648957
0.00606364
0.00546632
0.00469348
0.0037145
0.00235614
0.000304946
9.12451e-05
0.000552486
0.0010427
0.00151689
0.00197775
0.00242848
0.00287083
0.00330546
0.00373234
0.00415101
0.00456073
0.00496051
0.00534919
0.00572543
0.00608774
0.00643449
0.00676393
0.00707419
0.00736332
0.00762931
0.00787009
0.00808359
0.0082678
0.00842081
0.00854091
0.0086267
0.00867727
0.00869225
0.00867203
0.00861785
0.0085319
0.00841733
0.00827828
0.00811983
0.00794802
0.0077695
0.00758903
0.00740139
0.00718404
0.00687641
0.00641032
0.0057554
0.00492037
0.0038836
0.00246067
0.000316706
9.20591e-05
0.000557218
0.00105815
0.00154531
0.00202011
0.00248567
0.00294386
0.00339541
0.00384023
0.00427772
0.00470688
0.00512646
0.00553496
0.00593074
0.00631199
0.00667683
0.00702325
0.00734923
0.00765266
0.00793145
0.00818346
0.00840663
0.00859894
0.00875854
0.0088838
0.00897348
0.00902681
0.00904368
0.00902477
0.00897165
0.00888687
0.00877391
0.00863715
0.00848172
0.00831351
0.00813871
0.00796144
0.00777463
0.00755063
0.00721972
0.00670706
0.00598177
0.00507119
0.00397575
0.00251527
0.000326647
9.28136e-05
0.000560869
0.00107153
0.00157079
0.00205854
0.00253778
0.00301047
0.0034774
0.00393848
0.00439299
0.00483974
0.00527721
0.00570365
0.00611709
0.00651545
0.00689659
0.00725829
0.00759833
0.00791451
0.00820462
0.00846649
0.00869803
0.00889725
0.00906237
0.00919186
0.00928462
0.00934008
0.00935841
0.00934057
0.0092885
0.00920509
0.00909412
0.00896009
0.00880806
0.0086435
0.00847188
0.00829627
0.00810923
0.00787733
0.00752053
0.00695463
0.00614418
0.00514284
0.00398503
0.00251093
0.000334077
4.9906e-05
0.000101206
0.000141865
0.000171713
0.000192617
0.000206151
0.000213861
0.000217634
0.000218934
0.000218788
0.00021785
0.000216509
0.000215017
0.000213567
0.000212294
0.000211248
0.000210388
0.000209652
0.000208987
0.000208367
0.000207783
0.000207222
0.000206667
0.000206081
0.00020541
0.000204565
0.000203434
0.000201861
0.000199632
0.000196453
0.000191923
0.0001855
0.000176445
0.000163741
0.000145967
0.00012105
8.60617e-05
7.97148e-05
7.68415e-05
0.000253005
0.000358055
0.000436236
0.000494172
0.000534218
0.00055957
0.000573506
0.000579253
0.000579603
0.000576689
0.00057198
0.000566432
0.000560602
0.000554847
0.000549429
0.000544535
0.000540237
0.000536508
0.000533269
0.000530414
0.000527818
0.000525342
0.000522822
0.00052005
0.000516773
0.000512675
0.000507352
0.000500292
0.000490844
0.000478183
0.000461249
0.000438653
0.000408474
0.000367833
0.000311595
0.00022742
6.9782e-05
8.33149e-05
0.000387803
0.000562666
0.000691631
0.000791123
0.00086526
0.000917328
0.000950615
0.000968945
0.00097618
0.000975771
0.000970465
0.000962279
0.000952551
0.000942211
0.00093198
0.00092243
0.00091388
0.000906407
0.000899915
0.000894205
0.00088902
0.000884063
0.00087899
0.000873393
0.000866777
0.000858535
0.000847922
0.000834018
0.000815702
0.000791597
0.000759997
0.000718705
0.000664672
0.000593119
0.000494833
0.000345737
7.59192e-05
8.91898e-05
0.000492882
0.000726665
0.000898962
0.00103741
0.00114767
0.00123198
0.00129223
0.00133137
0.00135316
0.00136165
0.00136062
0.00135325
0.00134196
0.00132859
0.00131456
0.00130097
0.00128851
0.00127743
0.0012677
0.00125907
0.00125117
0.00124355
0.00123566
0.00122688
0.00121642
0.00120335
0.00118653
0.00116457
0.00113584
0.00109835
0.0010497
0.000986819
0.000905479
0.000798929
0.000653962
0.000437365
8.13243e-05
9.48776e-05
0.000573423
0.000851693
0.001058
0.00123045
0.00137591
0.00149506
0.00158747
0.00165408
0.00169738
0.00172116
0.00172972
0.00172727
0.00171744
0.00170319
0.00168688
0.00167028
0.00165457
0.00164029
0.00162753
0.00161606
0.00160542
0.00159503
0.00158414
0.00157188
0.00155718
0.00153873
0.00151499
0.00148409
0.00144384
0.00139166
0.00132443
0.00123824
0.00112773
0.000984341
0.000791565
0.000510284
8.5825e-05
0.00010055
0.000635678
0.000944857
0.00117624
0.00137689
0.00155478
0.00170903
0.00183654
0.00193545
0.00200607
0.00205097
0.00207434
0.0020811
0.00207603
0.00206334
0.00204647
0.00202807
0.00200991
0.00199293
0.00197742
0.00196323
0.00194987
0.00193661
0.00192254
0.00190653
0.0018872
0.00186288
0.0018316
0.00179102
0.00173839
0.00167053
0.00158367
0.0014731
0.00133244
0.00115162
0.000911645
0.000570216
8.95668e-05
0.000106293
0.000684523
0.0010135
0.00126239
0.00148533
0.00169164
0.00187936
0.00204289
0.00217719
0.00227962
0.00235069
0.00239373
0.00241391
0.00241698
0.00240842
0.00239288
0.00237398
0.00235424
0.00233511
0.00231719
0.00230043
0.00228436
0.00226816
0.00225073
0.00223069
0.00220636
0.00217571
0.00213634
0.00208542
0.00201969
0.0019354
0.00182816
0.00169256
0.00152134
0.00130323
0.00101756
0.000620742
9.2714e-05
0.000112161
0.000724207
0.00106484
0.00132531
0.00156474
0.00179447
0.00201246
0.00221114
0.00238227
0.00251968
0.00262104
0.00268809
0.00272568
0.00274024
0.00273842
0.00272612
0.0027081
0.00268772
0.00266705
0.00264707
0.00262792
0.00260919
0.00258996
0.002569
0.00254467
0.002515
0.00247758
0.0024296
0.00236778
0.00228836
0.00218705
0.00205891
0.00189793
0.00169613
0.00144137
0.00111189
0.000664184
9.53947e-05
0.000118269
0.000759676
0.00110672
0.00137406
0.00162397
0.00187122
0.00211492
0.00234638
0.00255426
0.00272853
0.00286335
0.0029581
0.00301673
0.00304595
0.00305342
0.00304633
0.00303059
0.00301056
0.00298899
0.00296733
0.002946
0.00292465
0.00290235
0.00287769
0.00284883
0.00281349
0.00276891
0.00271187
0.00263866
0.00254505
0.00242628
0.00227692
0.00209044
0.00185833
0.00156782
0.00119662
0.000702107
9.77017e-05
0.000124939
0.000798066
0.00114834
0.00141798
0.00167163
0.00192949
0.00219326
0.00245382
0.00269705
0.00290885
0.0030793
0.00320475
0.00328759
0.00333439
0.0033536
0.00335361
0.00334157
0.00332287
0.00330107
0.00327817
0.00325488
0.003231
0.00320558
0.00317709
0.00314347
0.00310216
0.00305006
0.00298357
0.00289856
0.00279037
0.00265383
0.00248307
0.00227118
0.00200923
0.00168409
0.00127329
0.00073561
9.97072e-05
0.000132968
0.000849938
0.00120033
0.00146632
0.00171563
0.00197628
0.00225358
0.00253858
0.00281468
0.00306361
0.00327092
0.00342931
0.003539
0.00360597
0.00363917
0.00364808
0.0036411
0.00362473
0.00360339
0.00357966
0.00355466
0.00352835
0.0034998
0.00346736
0.00342879
0.00338125
0.00332132
0.00324504
0.00314789
0.00302484
0.00287033
0.00267815
0.00244108
0.00214993
0.00179138
0.00134308
0.000765493
0.000101468
0.00014407
0.000928578
0.00127336
0.00152717
0.00176271
0.00201772
0.00230148
0.00260556
0.00291119
0.00319593
0.00344049
0.00363333
0.00377196
0.00386127
0.00391043
0.0039299
0.00392927
0.00391617
0.00389594
0.00387184
0.00384538
0.00381675
0.00378506
0.0037486
0.00370491
0.00365091
0.0035829
0.00349655
0.00338701
0.00324889
0.00307633
0.00286283
0.00260095
0.00228136
0.00189069
0.00140692
0.00079235
0.000103027
0.000161244
0.00104624
0.00137538
0.00160585
0.00181782
0.00205877
0.00234183
0.00265928
0.00299053
0.00330905
0.00359049
0.0038186
0.00398767
0.00410106
0.00416787
0.00419932
0.00420621
0.00419724
0.00417873
0.00415466
0.004127
0.00409617
0.00406137
0.00402081
0.00397187
0.00391124
0.00383492
0.0037383
0.00361618
0.00346289
0.00327228
0.00303767
0.00275146
0.00240427
0.00198283
0.00146553
0.00081663
0.00010442
0.000188208
0.0012105
0.00150968
0.00170384
0.00188352
0.00210306
0.00237874
0.00270383
0.00305644
0.0034062
0.00372352
0.00398711
0.00418756
0.00432633
0.00441207
0.00445674
0.00447211
0.00446803
0.00445179
0.00442811
0.00439946
0.00436655
0.00432866
0.00428396
0.00422966
0.00416225
0.00407748
0.00397041
0.00383561
0.00366712
0.00345858
0.00320316
0.00289319
0.00251932
0.00206847
0.00151951
0.000838681
0.000105676
0.000227622
0.00141591
0.00167377
0.00181812
0.00195965
0.00215265
0.00241541
0.00274282
0.00311246
0.00349055
0.00384225
0.00414096
0.00437321
0.00453815
0.00464382
0.00470263
0.00472728
0.0047287
0.00471517
0.00469218
0.00466272
0.00462779
0.00458682
0.00453794
0.00447822
0.00440394
0.00431058
0.00419299
0.00404546
0.00386182
0.00363554
0.0033597
0.00302662
0.00262705
0.00214813
0.00156932
0.000858764
0.00010682
0.000287228
0.0016492
0.00185563
0.00194121
0.00204322
0.00220786
0.00245409
0.00277933
0.00316183
0.00356513
0.0039493
0.00428228
0.00454625
0.00473771
0.00486397
0.00493759
0.0049721
0.00497949
0.00496902
0.00494693
0.00491676
0.00487985
0.00483574
0.00478263
0.00471744
0.00463622
0.00453422
0.00440607
0.00424583
0.00404716
0.00380342
0.00350762
0.00315214
0.00272787
0.00222226
0.00161532
0.000877079
0.000107873
9.35627e-05
0.000564271
0.00108603
0.00160062
0.00210552
0.00260326
0.00309572
0.00358369
0.00406701
0.0045448
0.00501563
0.0054776
0.00592856
0.00636612
0.0067878
0.00719107
0.00757341
0.00793234
0.00826546
0.00857044
0.00884506
0.00908723
0.00929501
0.00946673
0.00960109
0.00969725
0.00975503
0.00977505
0.00975886
0.009709
0.00962899
0.00952309
0.00939606
0.00925285
0.00909832
0.00893696
0.00877024
0.00858611
0.00834334
0.00794557
0.00729923
0.00633361
0.00513835
0.0038726
0.00243143
0.000475741
9.47813e-05
0.000567189
0.00110396
0.00163802
0.0021638
0.00268337
0.0031986
0.00371033
0.00421839
0.00472176
0.00521873
0.00570707
0.00618417
0.00664721
0.00709324
0.00751933
0.00792258
0.00830024
0.00864968
0.00896843
0.00925419
0.00950487
0.00971862
0.00989397
0.0100299
0.010126
0.0101826
0.0102011
0.0101839
0.0101343
0.0100567
0.0099558
0.00983645
0.00970284
0.00955829
0.00940494
0.00924112
0.00904984
0.00879018
0.0083657
0.00757957
0.00641808
0.00500285
0.00363108
0.00224742
0.000554469
9.59588e-05
0.000569362
0.00112044
0.0016727
0.0022175
0.0027565
0.00329155
0.00382356
0.00435232
0.0048767
0.00539477
0.00590401
0.0064015
0.00688403
0.00734831
0.0077911
0.00820921
0.00859967
0.00895968
0.00928664
0.00957821
0.00983232
0.0100472
0.0102216
0.0103549
0.0104471
0.0104991
0.0105133
0.0104927
0.0104418
0.0103656
0.0102693
0.0101574
0.010033
0.00989744
0.00975008
0.00958711
0.00940222
0.00913936
0.00858502
0.00768545
0.00653579
0.00505564
0.00320464
0.00208849
0.000549146
9.71168e-05
0.000571568
0.00113648
0.0017057
0.0022678
0.00282413
0.00337658
0.00392604
0.00447226
0.00501397
0.00554905
0.00607473
0.0065878
0.00708479
0.00756215
0.00801638
0.00844411
0.0088422
0.0092077
0.00953795
0.00983058
0.0100835
0.0102952
0.0104646
0.0105913
0.010676
0.0107205
0.0107278
0.0107021
0.0106489
0.0105739
0.0104826
0.0103791
0.0102653
0.0101403
0.0100011
0.00985108
0.00966959
0.00926431
0.00799929
0.00663068
0.0060237
0.00490905
0.00312813
0.00193217
0.000488245
9.8268e-05
0.000574335
0.00115296
0.00173799
0.00231578
0.00288753
0.00345521
0.00401969
0.00458063
0.00513659
0.00568526
0.00622362
0.00674825
0.00725546
0.00774151
0.00820273
0.00863561
0.00903689
0.00940355
0.00973287
0.0100224
0.0102703
0.0104749
0.0106357
0.0107525
0.0108269
0.0108613
0.0108599
0.0108281
0.0107724
0.0106995
0.0106151
0.0105226
0.0104225
0.010312
0.0101907
0.0100458
0.00970707
0.00716363
0.00681926
0.00627895
0.00553505
0.00455866
0.00319802
0.00149421
0.000442758
9.94151e-05
0.000578013
0.0011705
0.0017704
0.00236242
0.00294787
0.00352882
0.00410613
0.00467935
0.00524686
0.00580613
0.00635394
0.00688666
0.00740046
0.00789146
0.00835589
0.00879014
0.00919089
0.00955505
0.00987987
0.0101629
0.0104024
0.0105968
0.0107459
0.0108503
0.010912
0.0109346
0.0109237
0.0108859
0.010829
0.0107604
0.0106859
0.0106081
0.0105259
0.0104358
0.0103236
0.0100129
0.00753139
0.00747553
0.00706423
0.00627897
0.00533508
0.00433065
0.0031547
0.00110916
0.000426758
0.000100556
0.000582833
0.00118956
0.00180364
0.00240871
0.00300634
0.0035988
0.00418695
0.00477022
0.00534681
0.00591397
0.00646832
0.00700607
0.00752327
0.00801597
0.00848034
0.00891276
0.00930982
0.00966844
0.00998582
0.0102596
0.0104879
0.0106697
0.0108048
0.0108947
0.0109423
0.0109525
0.0109321
0.0108896
0.010834
0.0107732
0.0107125
0.0106534
0.010592
0.0105131
0.0102274
0.00791633
0.0082093
0.00804884
0.00738454
0.00637843
0.00526311
0.00420864
0.00312904
0.00141167
0.000430513
0.000101689
0.00058896
0.00121055
0.00183841
0.00245563
0.00306421
0.00366663
0.00426381
0.00485505
0.00543839
0.00601092
0.0065691
0.00710905
0.00762676
0.00811826
0.00857973
0.00900752
0.00939825
0.0097488
0.0100564
0.0103186
0.0105337
0.0107008
0.0108204
0.0108946
0.0109274
0.0109254
0.010897
0.0108524
0.0108015
0.0107524
0.0107097
0.0106713
0.0106221
0.0104067
0.00823005
0.00868254
0.00882606
0.00842831
0.00758806
0.00644551
0.00522739
0.00413929
0.00314982
0.00184779
0.000493902
0.000102813
0.000596554
0.00123384
0.00187545
0.00250428
0.00312285
0.00373392
0.00433845
0.00493569
0.00552355
0.00609899
0.00665841
0.00719788
0.00771341
0.00820106
0.00865705
0.0090778
0.00945994
0.00980032
0.0100961
0.010345
0.0105454
0.0106966
0.0107997
0.0108577
0.0108761
0.0108631
0.0108291
0.0107857
0.0107437
0.0107107
0.0106888
0.0106646
0.0105252
0.00846796
0.00890569
0.00928261
0.00917464
0.00862644
0.00769932
0.00649417
0.00521673
0.00409659
0.00317394
0.00217453
0.000816295
0.000103933
0.000605809
0.00125995
0.00191566
0.00255591
0.00318379
0.00380236
0.0044127
0.00501402
0.00560418
0.00618012
0.00673822
0.0072746
0.00778536
0.00826668
0.00871486
0.00912641
0.00949799
0.00982649
0.0101091
0.0103434
0.010528
0.0106626
0.0107489
0.010791
0.0107961
0.0107743
0.010738
0.0107002
0.0106715
0.0106584
0.0106525
0.0105978
0.00857471
0.00893242
0.00947954
0.009605
0.00933912
0.00872023
0.00777072
0.00655457
0.0052497
0.00409536
0.0031983
0.00240133
0.00141289
0.00010506
0.000616995
0.00128957
0.00196017
0.00261197
0.00324868
0.00387372
0.00448833
0.00509181
0.00568204
0.00625602
0.00681024
0.00734097
0.00784445
0.00831705
0.00875524
0.00915564
0.00951501
0.00983023
0.0100985
0.0103174
0.0104857
0.0106035
0.0106733
0.0107005
0.0106942
0.0106667
0.0106322
0.0106044
0.0105931
0.0105954
0.0105629
0.00871185
0.00867999
0.00943633
0.00977379
0.00974013
0.00939739
0.00876427
0.00783755
0.00665247
0.00535482
0.0041749
0.00326719
0.00258111
0.00193037
0.000106219
0.000630536
0.00132374
0.00201047
0.00267418
0.0033193
0.00394975
0.00456704
0.00517062
0.00575859
0.0063281
0.00687585
0.00739835
0.00789211
0.00835371
0.00877987
0.00916738
0.00951309
0.00981395
0.0100671
0.0102703
0.0104223
0.0105236
0.0105778
0.0105919
0.0105769
0.0105473
0.0105188
0.0105048
0.0105094
0.0104987
0.00988471
0.00826331
0.00914385
0.00969792
0.00987921
0.009765
0.00940158
0.00879395
0.0079251
0.00680938
0.00555933
0.00437957
0.00344688
0.00279377
0.00232883
0.000107448
0.0006472
0.00136401
0.00206845
0.00274444
0.00339745
0.00403205
0.00465019
0.00525168
0.0058349
0.00639734
0.006936
0.00744774
0.00792936
0.00837779
0.00879002
0.00916305
0.0094939
0.00977959
0.0100173
0.0102047
0.0103408
0.0104267
0.0104668
0.01047
0.0104496
0.0104221
0.0104039
0.0104073
0.0104183
0.0102374
0.00799528
0.00876135
0.00945497
0.00981324
0.00989024
0.00973946
0.0093892
0.00883489
0.00805188
0.00703989
0.00588097
0.00474386
0.00380195
0.00313988
0.00273837
0.000108812
0.000668497
0.0014126
0.00213628
0.00282464
0.00348465
0.0041218
0.00473869
0.00533565
0.00591152
0.00646423
0.0069912
0.00748968
0.00795688
0.0083901
0.00878663
0.0091438
0.00945879
0.00972875
0.0099509
0.010123
0.0102441
0.010316
0.0103442
0.0103394
0.0103173
0.0102959
0.0102922
0.0103093
0.0103051
0.00787779
0.00834226
0.00913669
0.00962507
0.00984758
0.00985989
0.00970026
0.0093855
0.00890496
0.00822963
0.00734916
0.00632167
0.0052783
0.00437019
0.00370293
0.0033061
0.000110397
0.000697177
0.00147209
0.00221587
0.00291612
0.00358174
0.00421943
0.00483266
0.00542248
0.00598835
0.00652872
0.0070415
0.0075244
0.00797508
0.00839121
0.00877051
0.00911061
0.00940897
0.00966291
0.00986974
0.0100273
0.0101349
0.0101946
0.0102134
0.010204
0.0101839
0.0101722
0.010182
0.0101703
0.00932552
0.00771999
0.0086727
0.00933003
0.00968739
0.00983018
0.00981265
0.00966717
0.0094051
0.00901375
0.00846256
0.00773226
0.00686466
0.00596081
0.00514098
0.00450722
0.00411338
0.000112314
0.000736981
0.00154417
0.00230771
0.00301875
0.00368822
0.00432417
0.00493122
0.0055113
0.00606462
0.00659024
0.00708661
0.00755192
0.00798427
0.00838178
0.00874257
0.00906465
0.00934583
0.00958367
0.00977569
0.00991981
0.0100155
0.0100655
0.0100779
0.0100672
0.0100531
0.0100559
0.0100709
0.00994628
0.00726842
0.00810471
0.0089165
0.0094211
0.00968798
0.00978771
0.00976584
0.00965297
0.00945776
0.0091646
0.00874272
0.00817235
0.00747713
0.00674038
0.00605268
0.00549918
0.00513643
0.000114717
0.000789483
0.001626
0.00240893
0.0031299
0.00380167
0.00443378
0.00503231
0.00560035
0.00613895
0.00664786
0.00712607
0.00757226
0.00798497
0.00836277
0.00870419
0.00900765
0.00927138
0.00949329
0.00967119
0.00980323
0.00988903
0.00993175
0.00994061
0.009932
0.00992696
0.00994133
0.00990787
0.0076875
0.00744222
0.00841322
0.00906513
0.00945444
0.00966047
0.00973767
0.0097311
0.00966627
0.00954719
0.00935507
0.00905958
0.00864265
0.00811883
0.00755284
0.00701554
0.00657118
0.00626629
0.000117764
0.000842019
0.00171189
0.00251355
0.0032436
0.00391749
0.00454447
0.00513284
0.00568717
0.00620955
0.00670047
0.00715948
0.00758571
0.00797817
0.0083358
0.00865757
0.00894233
0.00918875
0.00939519
0.00955989
0.00968132
0.00975927
0.00979718
0.00980518
0.00980149
0.00980871
0.00981423
0.00944593
0.00685187
0.00783701
0.00863681
0.00914805
0.0094528
0.00961646
0.0096922
0.00971742
0.00971158
0.0096726
0.00957803
0.00939842
0.00911845
0.0087501
0.00833953
0.00794512
0.00761233
0.00737397
0.000120758
0.000891515
0.00180038
0.00262348
0.00335897
0.00402971
0.00465152
0.00522914
0.00576899
0.00627453
0.00674707
0.00718672
0.00759307
0.00796552
0.00830341
0.00860608
0.00887279
0.00910266
0.00929457
0.00944727
0.00955967
0.00963171
0.00966678
0.00967569
0.00967769
0.00969431
0.00967195
0.00676955
0.00720303
0.00814056
0.0087787
0.00918032
0.00942311
0.0095683
0.00966072
0.0097306
0.00978999
0.00982965
0.00982357
0.00974398
0.009579
0.00934018
0.00905908
0.00878392
0.00854607
0.00836633
0.000122959
0.00093805
0.00188894
0.0027353
0.00347482
0.00413927
0.00475049
0.00531779
0.0058433
0.00633231
0.00678703
0.00720812
0.00759563
0.00794935
0.00826895
0.0085541
0.00880445
0.00901948
0.00919856
0.00934102
0.00944626
0.00951417
0.00954759
0.00955794
0.00956572
0.00955898
0.00911197
0.00652421
0.00754363
0.00833192
0.00884365
0.00916761
0.00937775
0.00952613
0.00965062
0.00977399
0.0098998
0.0100116
0.0100809
0.0100825
0.0100084
0.00986957
0.00968994
0.00950449
0.00933747
0.00920077
0.000123663
0.000978712
0.00198029
0.00284964
0.00358932
0.00424418
0.00484211
0.00539664
0.00590825
0.00638168
0.00681992
0.00722412
0.00759476
0.00793201
0.00823584
0.00850623
0.0087431
0.00894629
0.0091156
0.00925085
0.00935192
0.00941795
0.00944947
0.00945862
0.0094632
0.00937434
0.00662441
0.00686654
0.0078107
0.00844261
0.00885427
0.00913087
0.00933176
0.00950066
0.00966824
0.00984884
0.0100371
0.0102104
0.0103395
0.0104031
0.0103965
0.0103304
0.0102241
0.0101013
0.00998169
0.00987203
0.000124677
0.000997482
0.00210343
0.00298305
0.0037117
0.00434784
0.00492813
0.00546648
0.00596365
0.00642237
0.00684577
0.00723517
0.00759153
0.0079154
0.00820694
0.00846643
0.00869402
0.00888984
0.00905397
0.00918611
0.0092865
0.0093533
0.00938215
0.00938142
0.0093387
0.00853082
0.00642079
0.00731919
0.008023
0.00850787
0.0088449
0.00909441
0.00930202
0.00950266
0.00971846
0.0099543
0.0101963
0.0104177
0.0105904
0.0106976
0.0107375
0.0107207
0.0106632
0.0105811
0.0104897
0.0103939
0.000130231
0.000941769
0.00207397
0.0030542
0.00383448
0.00445778
0.00501677
0.00553592
0.00601666
0.00645931
0.00686794
0.00724361
0.00758774
0.00790099
0.00818321
0.00843487
0.00865645
0.00884872
0.00901239
0.00914632
0.00925043
0.00932097
0.00934179
0.00930229
0.00896371
0.00664869
0.0070413
0.00770961
0.00820354
0.00856847
0.00884731
0.0090814
0.00930428
0.00954106
0.00980377
0.0100874
0.0103709
0.0106255
0.0108263
0.0109606
0.0110293
0.0110428
0.0110141
0.0109559
0.0108784
0.0107868
0.000135378
0.000912773
0.00188867
0.00282981
0.00376907
0.00444815
0.00501553
0.00554618
0.00605445
0.00649458
0.00689114
0.00725457
0.00758845
0.00789395
0.00817024
0.00841807
0.00864053
0.00883897
0.00900002
0.00911412
0.00916117
0.00912334
0.00914845
0.00856802
0.00691716
0.00713658
0.00764656
0.00806811
0.00839349
0.00865624
0.00888605
0.00911001
0.00935035
0.00962123
0.00992368
0.0102433
0.010554
0.0108271
0.0110417
0.011189
0.0112721
0.0113007
0.0112861
0.0112384
0.0111652
0.0110712
0.000135297
0.000877556
0.00164248
0.00253495
0.00345626
0.00428561
0.00500558
0.00561405
0.00609701
0.00651472
0.00690532
0.00726552
0.00759678
0.00789798
0.0081655
0.00839233
0.00856925
0.00867244
0.00862653
0.00847671
0.00826185
0.00802903
0.00778294
0.00755636
0.00766611
0.00792193
0.00818953
0.00841317
0.00860603
0.0087852
0.00897408
0.00919028
0.00944587
0.00974386
0.0100746
0.0104159
0.010739
0.011017
0.011233
0.0113818
0.0114678
0.0115001
0.0114886
0.011442
0.0113663
0.011266
0.000130831
0.000785378
0.00151146
0.00238735
0.0033232
0.00421629
0.00501933
0.00571979
0.00632576
0.00685565
0.00731798
0.00771619
0.00805232
0.00832544
0.0085325
0.00867257
0.00875581
0.00880137
0.00879976
0.00875025
0.0086632
0.00855932
0.00846765
0.00842348
0.008476
0.00856985
0.00866272
0.00874771
0.00884128
0.00895703
0.00911419
0.00932417
0.00959025
0.00990529
0.0102506
0.0105988
0.0109202
0.0111911
0.0113984
0.0115394
0.0116194
0.011647
0.011631
0.0115789
0.0114963
0.0113874
0.000128286
0.000717783
0.00147049
0.00236387
0.00331995
0.00425512
0.00512102
0.00589817
0.00658348
0.00717993
0.00769157
0.00812373
0.00848216
0.00877136
0.00899453
0.00915492
0.00925839
0.00931458
0.00933203
0.00931712
0.00927697
0.00922017
0.0091683
0.00913286
0.00911399
0.00909829
0.0090811
0.00907463
0.00909917
0.00916998
0.00930416
0.00950834
0.00977835
0.0100988
0.0104446
0.0107855
0.0110931
0.011347
0.0115374
0.0116635
0.011731
0.0117479
0.0117221
0.0116604
0.0115683
0.0114499
0.000127991
0.000689505
0.00150101
0.00244022
0.00342975
0.00440289
0.00531618
0.00614642
0.00688372
0.00752568
0.00807441
0.00853536
0.00891571
0.00922299
0.00946429
0.00964598
0.00977401
0.00985425
0.0098933
0.0098964
0.00987259
0.00982889
0.00977313
0.00970873
0.00963374
0.00954903
0.00946482
0.00940112
0.00938083
0.00942176
0.00953939
0.0097363
0.0100024
0.0103163
0.0106492
0.0109706
0.0112544
0.0114836
0.0116508
0.0117569
0.0118072
0.0118092
0.0117703
0.0116967
0.0115937
0.0114658
0.000129012
0.00070179
0.00159006
0.00258994
0.00362053
0.00462881
0.00557772
0.00644415
0.00721591
0.00788862
0.00846356
0.00894615
0.00934423
0.00966663
0.00992194
0.0101177
0.0102601
0.010354
0.0104052
0.0104188
0.0104001
0.010354
0.010284
0.0101916
0.0100787
0.00995289
0.00983027
0.00973369
0.00968661
0.00970858
0.00981317
0.00999943
0.010253
0.010549
0.0108576
0.0111495
0.0114019
0.0116005
0.0117403
0.0118225
0.0118527
0.0118374
0.0117835
0.0116969
0.0115827
0.0114457
0.000130729
0.000743472
0.00171751
0.0027827
0.00385675
0.00489696