/*--------------------------------*- C++ -*----------------------------------*\
  =========                 |
  \\      /  F ield         | OpenFOAM: The Open Source CFD Toolbox
   \\    /   O peration     | Website:  https://openfoam.org
    \\  /    A nd           | Version:  7
     \\/     M anipulation  |
\*---------------------------------------------------------------------------*/
FoamFile
{
    version     2.0;
    format      ascii;
    class       volScalarField;
    location    "0.2";
    object      p;
}
// * * * * * * * * * * * * * * * * * * * * * * * * * * * * * * * * * * * * * //

dimensions      [1 -1 -2 0 0 0 0];

internalField   nonuniform List<scalar> 
9072
(
2307.41
2311.85
2318.3
2323.71
2326.88
2327.71
2326.5
2323.54
2319.04
2313.16
2306
2297.62
2288.05
2277.28
2265.28
2252.01
2237.44
2221.5
2204.18
2185.43
2165.26
2143.71
2120.86
2096.87
2071.98
2046.56
2021.09
1996.28
1973.06
1952.64
1936.63
1927.07
1926.56
1938.43
1966.96
2018.02
2098.04
2214.36
2373.93
2580.1
2823.92
3076.08
3292.05
3448.11
3537.03
3633.33
2277.26
2280.65
2285.5
2289.83
2292.36
2292.84
2291.43
2288.33
2283.73
2277.74
2270.48
2261.98
2252.26
2241.32
2229.13
2215.64
2200.82
2184.62
2167
2147.93
2127.42
2105.51
2082.3
2057.95
2032.7
2006.94
1981.17
1956.11
1932.7
1912.19
1896.19
1886.77
1886.54
1898.81
1927.68
1977.82
2055.42
2168.05
2323.06
2525.69
2771.84
3036.24
3270.56
3436.66
3517.16
3616.4
2246.75
2250.15
2253.51
2256.46
2257.94
2257.67
2255.71
2252.2
2247.24
2240.93
2233.36
2224.54
2214.49
2203.18
2190.6
2176.69
2161.41
2144.71
2126.56
2106.94
2085.85
2063.35
2039.54
2014.6
1988.79
1962.49
1936.26
1910.81
1887.12
1866.46
1850.45
1841.17
1841.24
1853.94
1883.26
1933.89
2011.65
2122.88
2273.75
2467.96
2702.96
2963.07
3211.08
3407.79
3523.14
3632.72
2215.75
2219.68
2222.12
2223.91
2224.36
2223.23
2220.59
2216.5
2211.04
2204.29
2196.27
2187.02
2176.52
2164.75
2151.67
2137.23
2121.38
2104.09
2085.3
2065.02
2043.25
2020.04
1995.52
1969.88
1943.38
1916.44
1889.61
1863.63
1839.49
1818.47
1802.2
1792.76
1792.73
1805.34
1834.5
1884.81
1961.63
2070.73
2217.5
2404.72
2629.73
2881.54
3135.02
3361.21
3524.46
3671.38
2184.29
2188.82
2190.79
2191.78
2191.41
2189.52
2186.21
2181.53
2175.55
2168.3
2159.82
2150.1
2139.12
2126.86
2113.25
2098.26
2081.83
2063.92
2044.48
2023.51
2001.03
1977.09
1951.83
1925.42
1898.17
1870.49
1842.94
1816.27
1791.47
1769.81
1752.92
1742.85
1742.13
1753.91
1781.99
1830.81
1905.43
2011.26
2153.25
2334.16
2552.19
2799.23
3057.16
3304.47
3507.46
3691.92
2152.35
2157.41
2159.16
2159.64
2158.64
2156.12
2152.23
2147.02
2140.54
2132.83
2123.89
2113.7
2102.26
2089.5
2075.38
2059.84
2042.83
2024.3
2004.22
1982.57
1959.37
1934.69
1908.65
1881.45
1853.38
1824.86
1796.46
1768.92
1743.22
1720.63
1702.74
1691.55
1689.54
1699.74
1725.81
1772.03
1843.22
1944.57
2080.9
2255.35
2467.44
2711.66
2974.19
3236.96
3469.29
3687.8
2119.93
2125.43
2127.1
2127.26
2125.8
2122.79
2118.41
2112.73
2105.81
2097.66
2088.29
2077.67
2065.77
2052.54
2037.92
2021.86
2004.28
1985.15
1964.42
1942.09
1918.17
1892.73
1865.88
1837.84
1808.88
1779.43
1750.04
1721.46
1694.65
1670.83
1651.57
1638.79
1634.9
1642.8
1665.99
1708.57
1775.17
1870.8
2000.37
2167.55
2373.22
2614.2
2879.88
3154.28
3407.62
3654.43
2087.05
2092.9
2094.58
2094.55
2092.76
2089.36
2084.59
2078.52
2071.21
2062.67
2052.91
2041.89
2029.57
2015.89
2000.8
1984.22
1966.09
1946.37
1925.01
1902
1877.35
1851.13
1823.45
1794.5
1764.59
1734.11
1703.6
1673.81
1645.65
1620.33
1599.34
1584.54
1578.22
1583.14
1602.64
1640.6
1701.45
1790.1
1911.58
2070.13
2267.91
2503.66
2769.61
3051.88
3320.75
3590.45
2053.72
2059.86
2061.6
2061.47
2059.45
2055.76
2050.67
2044.28
2036.64
2027.77
2017.66
2006.28
1993.57
1979.48
1963.93
1946.86
1928.2
1907.9
1885.92
1862.23
1836.84
1809.82
1781.27
1751.38
1720.43
1688.82
1657.07
1625.9
1596.19
1569.09
1546.04
1528.8
1519.53
1520.86
1535.88
1568.29
1622.28
1702.65
1814.5
1962.59
2150.15
2377.52
2639.59
2925.27
3206.06
3494.61
2019.96
2026.34
2028.18
2028
2025.82
2021.93
2016.6
2009.95
2002.04
1992.88
1982.47
1970.76
1957.7
1943.23
1927.26
1909.72
1890.55
1869.69
1847.09
1822.72
1796.58
1768.74
1739.28
1708.4
1676.35
1643.52
1610.41
1577.69
1546.23
1517.11
1491.69
1471.62
1458.94
1456.07
1465.92
1491.89
1537.94
1608.67
1709.17
1844.54
2018.83
2233.65
2486.58
2770.19
3059.74
3365.17
1985.78
1992.37
1994.31
1994.13
1991.86
1987.81
1982.31
1975.46
1967.34
1957.95
1947.28
1935.29
1921.92
1907.09
1890.72
1872.75
1853.09
1831.67
1808.46
1783.41
1756.52
1727.84
1697.45
1665.52
1632.3
1598.16
1563.57
1529.18
1495.78
1464.41
1436.33
1413.1
1396.57
1388.98
1392.98
1411.7
1448.77
1508.49
1595.81
1715.85
1873.23
2070.36
2307.79
2582.66
2876.9
3196.39
1951.21
1957.98
1960.01
1959.86
1957.53
1953.39
1947.76
1940.77
1932.48
1922.91
1912.03
1899.8
1886.15
1871
1854.28
1835.89
1815.76
1793.81
1770
1744.27
1716.62
1687.08
1655.72
1622.71
1588.27
1552.73
1516.56
1480.35
1444.86
1411.03
1380.05
1353.33
1332.57
1319.79
1317.36
1328.08
1355.2
1402.59
1474.83
1576.79
1713.26
1886.72
2101.04
2359.11
2651.95
2978.94
1916.25
1923.16
1925.28
1925.17
1922.82
1918.63
1912.93
1905.85
1897.45
1887.74
1876.69
1864.26
1850.37
1834.94
1817.88
1799.1
1778.52
1756.06
1731.66
1705.26
1676.84
1646.43
1614.08
1579.94
1544.22
1507.23
1469.38
1431.24
1393.5
1357.03
1322.92
1292.45
1267.13
1248.75
1239.39
1241.47
1257.76
1291.61
1347
1428.28
1539.96
1683.24
1865.34
2096.91
2379.51
2700.25
1880.91
1887.95
1890.12
1890.06
1887.72
1883.52
1877.79
1870.66
1862.19
1852.38
1841.21
1828.61
1814.52
1798.84
1781.48
1762.34
1741.34
1718.38
1693.4
1666.33
1637.15
1605.85
1572.49
1537.19
1500.13
1461.61
1422.01
1381.83
1341.71
1302.46
1265.03
1230.57
1200.41
1176.1
1159.4
1152.3
1157.04
1176.31
1213.45
1272.19
1356.39
1462.91
1601.84
1795.6
2055.91
2344.52
1845.18
1852.33
1854.54
1854.52
1852.22
1848.04
1842.32
1835.19
1826.69
1816.82
1805.57
1792.85
1778.59
1762.69
1745.06
1725.59
1704.19
1680.75
1655.2
1627.47
1597.52
1565.33
1530.94
1494.44
1456.02
1415.91
1374.48
1332.17
1289.56
1247.38
1206.48
1167.85
1132.64
1102.13
1077.75
1061.06
1053.72
1057.74
1075.91
1111.07
1165.13
1225.98
1310.54
1457.93
1681.6
1889.47
1809.09
1816.23
1818.51
1818.53
1816.31
1812.19
1806.52
1799.42
1790.94
1781.06
1769.76
1756.95
1742.56
1726.49
1708.62
1688.86
1667.09
1643.2
1617.12
1588.75
1558.04
1524.97
1489.56
1451.87
1412.07
1370.36
1327.05
1282.56
1237.41
1192.21
1147.71
1104.77
1064.34
1027.42
995.112
968.533
948.883
937.641
936.672
944.396
954.156
946.33
974.392
1087.87
1263.56
1323.58
-3.09069
-3.09656
-3.09267
-3.0748
-3.04183
-2.99511
-2.93737
-2.8715
-2.80017
-2.72565
-2.64975
-2.57397
-2.4994
-2.42689
-2.35704
-2.29025
-2.22683
-2.16686
-2.11047
-2.05765
-2.00836
-1.96257
-1.92017
-1.8811
-1.84524
-1.81237
-1.78245
-1.75536
-1.73102
-1.70934
-1.69021
-1.67355
-1.65928
-1.64735
-1.63771
-1.63032
-1.62537
-1.62277
-3.12002
-3.12621
-3.12348
-3.10662
-3.07559
-3.02863
-2.97102
-2.90505
-2.83338
-2.7584
-2.68198
-2.60567
-2.53061
-2.45764
-2.3874
-2.32028
-2.25657
-2.19638
-2.13981
-2.08685
-2.03745
-1.99157
-1.94909
-1.90983
-1.87391
-1.84101
-1.81105
-1.78393
-1.75957
-1.73787
-1.71873
-1.70208
-1.68782
-1.67593
-1.66635
-1.65905
-1.65428
-1.65181
-3.1519
-3.15827
-3.15651
-3.14019
-3.10829
-3.06299
-3.00545
-2.93913
-2.86689
-2.79123
-2.71411
-2.63714
-2.56146
-2.48795
-2.41726
-2.34975
-2.28573
-2.22531
-2.16856
-2.11547
-2.06596
-2.02
-1.97746
-1.93828
-1.9022
-1.86925
-1.83927
-1.81214
-1.78777
-1.76608
-1.74694
-1.73032
-1.7161
-1.70426
-1.69475
-1.68754
-1.68294
-1.68038
-3.18623
-3.19344
-3.19285
-3.17684
-3.14528
-3.0994
-3.04127
-2.97414
-2.90096
-2.82432
-2.74626
-2.6684
-2.59196
-2.5178
-2.44655
-2.37861
-2.31425
-2.25358
-2.19666
-2.14344
-2.09385
-2.04781
-2.00521
-1.96596
-1.9299
-1.89696
-1.86699
-1.83988
-1.81553
-1.79384
-1.77474
-1.75815
-1.74399
-1.73222
-1.72279
-1.71569
-1.71114
-1.70848
-3.22305
-3.23191
-3.23273
-3.21674
-3.18484
-3.1379
-3.07856
-3.0101
-2.93555
-2.85759
-2.77832
-2.69939
-2.62203
-2.54711
-2.47525
-2.40683
-2.34211
-2.28118
-2.22408
-2.17074
-2.12106
-2.07496
-2.03232
-1.99305
-1.95703
-1.92412
-1.8942
-1.86713
-1.84281
-1.82116
-1.80211
-1.78558
-1.77149
-1.75979
-1.75044
-1.74342
-1.73887
-1.73614
-3.2626
-3.27379
-3.27627
-3.25997
-3.22711
-3.17854
-3.11735
-3.047
-2.97063
-2.89099
-2.81025
-2.73004
-2.65162
-2.57584
-2.50332
-2.43439
-2.36928
-2.30809
-2.2508
-2.19734
-2.14759
-2.10145
-2.05881
-2.01957
-1.9836
-1.95076
-1.9209
-1.89389
-1.86962
-1.84803
-1.82904
-1.81259
-1.79858
-1.78696
-1.77769
-1.77072
-1.76615
-1.76335
-3.30525
-3.31931
-3.3237
-3.30671
-3.27233
-3.22144
-3.15773
-3.08488
-3.0062
-2.9245
-2.84199
-2.7603
-2.68068
-2.60396
-2.53073
-2.46126
-2.39576
-2.33428
-2.2768
-2.22323
-2.17342
-2.12728
-2.08467
-2.04549
-2.00961
-1.97686
-1.94709
-1.92015
-1.89596
-1.87446
-1.85555
-1.83919
-1.82527
-1.81373
-1.80453
-1.7976
-1.79298
-1.79012
-3.35147
-3.36886
-3.37543
-3.35729
-3.32074
-3.26677
-3.1998
-3.1238
-3.04229
-2.95813
-2.87354
-2.79016
-2.70918
-2.63142
-2.55742
-2.4874
-2.42149
-2.35972
-2.30205
-2.24838
-2.19855
-2.15244
-2.10991
-2.07083
-2.03507
-2.00243
-1.97276
-1.94592
-1.92183
-1.90043
-1.88163
-1.86537
-1.85155
-1.84009
-1.83094
-1.82404
-1.81938
-1.81646
-3.40204
-3.42295
-3.43205
-3.4121
-3.37264
-3.3147
-3.24365
-3.1638
-3.0789
-2.99186
-2.9049
-2.81959
-2.7371
-2.6582
-2.58337
-2.51275
-2.44641
-2.38436
-2.32652
-2.27278
-2.22297
-2.17694
-2.13453
-2.09558
-2.05995
-2.02744
-1.9979
-1.97119
-1.94723
-1.92596
-1.90728
-1.89114
-1.87742
-1.86603
-1.85693
-1.85004
-1.84534
-1.84238
-3.45824
-3.48232
-3.49442
-3.47171
-3.42836
-3.3654
-3.28933
-3.20488
-3.11601
-3.02565
-2.936
-2.84856
-2.7644
-2.68425
-2.60851
-2.53726
-2.47049
-2.40817
-2.35019
-2.29643
-2.24669
-2.20078
-2.15851
-2.11972
-2.08424
-2.05189
-2.02251
-1.99596
-1.97216
-1.95103
-1.9325
-1.91648
-1.90286
-1.89156
-1.8825
-1.87562
-1.87089
-1.86789
-3.5224
-3.54807
-3.56374
-3.53682
-3.48831
-3.41903
-3.33687
-3.24697
-3.15349
-3.05939
-2.96674
-2.87695
-2.791
-2.7095
-2.63279
-2.56089
-2.49371
-2.43114
-2.37307
-2.31933
-2.2697
-2.22395
-2.18186
-2.14325
-2.10795
-2.07578
-2.04659
-2.02023
-1.99661
-1.97566
-1.95729
-1.9414
-1.92788
-1.91666
-1.90765
-1.90079
-1.89602
-1.893
-3.59882
-3.62196
-3.64175
-3.60839
-3.55294
-3.47575
-3.38626
-3.28997
-3.19122
-3.09289
-2.99695
-2.90464
-2.81677
-2.73386
-2.65615
-2.5836
-2.51602
-2.45326
-2.39514
-2.34148
-2.292
-2.24645
-2.20456
-2.16616
-2.13107
-2.09911
-2.07014
-2.044
-2.02059
-1.99984
-1.98164
-1.96589
-1.95249
-1.94135
-1.93239
-1.92554
-1.92075
-1.91771
-3.69612
-3.70686
-3.73092
-3.68759
-3.62275
-3.53571
-3.43745
-3.33377
-3.22903
-3.12601
-3.02647
-2.93145
-2.8416
-2.75724
-2.67853
-2.60534
-2.53743
-2.47452
-2.41641
-2.36286
-2.31358
-2.26824
-2.2266
-2.18844
-2.15359
-2.12189
-2.09316
-2.06728
-2.04411
-2.02357
-2.00556
-1.98996
-1.97668
-1.96562
-1.95672
-1.94989
-1.94509
-1.94204
-3.82984
-3.80753
-3.83437
-3.77588
-3.69823
-3.59902
-3.49038
-3.37822
-3.26679
-3.1586
-3.05516
-2.95728
-2.86536
-2.77955
-2.69986
-2.62608
-2.55787
-2.49489
-2.43684
-2.38345
-2.33439
-2.28932
-2.24795
-2.21007
-2.17551
-2.1441
-2.11566
-2.09006
-2.06716
-2.04686
-2.02903
-2.0136
-2.00044
-1.98948
-1.98065
-1.97385
-1.96904
-1.96598
-4.03568
-3.93481
-3.95594
-3.87496
-3.77981
-3.6657
-3.54491
-3.42317
-3.30433
-3.19053
-3.08293
-2.98204
-2.88801
-2.80076
-2.72013
-2.64581
-2.57736
-2.51435
-2.45643
-2.40324
-2.35444
-2.30967
-2.26862
-2.23107
-2.19684
-2.16576
-2.13765
-2.11236
-2.08975
-2.06969
-2.05207
-2.03681
-2.02379
-2.01294
-2.00418
-1.99743
-1.99263
-1.98956
-4.35577
-4.12299
-4.10025
-3.98732
-3.86806
-3.73585
-3.60097
-3.46848
-3.34154
-3.22172
-3.10973
-3.00573
-2.90957
-2.82092
-2.73941
-2.66461
-2.59598
-2.533
-2.47525
-2.42231
-2.37381
-2.32938
-2.28869
-2.25152
-2.21767
-2.18695
-2.1592
-2.13424
-2.11192
-2.09212
-2.07472
-2.05963
-2.04676
-2.03602
-2.02735
-2.02064
-2.01585
-2.01277
1752.14
1759.02
1761.52
1761.57
1759.48
1755.51
1749.97
1742.99
1734.58
1724.75
1713.44
1700.57
1686.04
1669.75
1651.59
1631.43
1609.15
1584.64
1557.78
1528.48
1496.67
1462.29
1425.33
1385.84
1343.91
1299.72
1253.52
1205.62
1156.44
1106.47
1056.28
1006.5
957.747
910.641
865.741
823.629
785.029
750.239
715.698
661.92
554.165
412.992
394.073
493.638
576.034
270.6
1673.1
1679.7
1682.23
1682.39
1680.51
1676.82
1671.55
1664.83
1656.65
1647
1635.81
1622.98
1608.41
1591.98
1573.55
1552.98
1530.15
1504.92
1477.14
1446.71
1413.5
1377.43
1338.46
1296.58
1251.82
1204.3
1154.16
1101.63
1047
990.585
932.745
873.821
814.101
753.784
693.015
631.844
569.097
497.327
389.877
236.848
108.696
54.5562
48.7423
66.593
94.4957
5.13807
1592.64
1598.86
1601.29
1601.56
1599.92
1596.55
1591.64
1585.27
1577.43
1568.07
1557.11
1544.44
1529.94
1513.48
1494.9
1474.07
1450.81
1424.97
1396.39
1364.91
1330.41
1292.74
1251.83
1207.6
1160.06
1109.22
1055.19
998.077
938.066
875.345
810.092
742.441
672.468
600.204
525.475
446.461
354.859
233.144
97.2552
29.071
10.1215
8.78027
6.63492
3.32539
-0.387619
0.508362
1510.91
1516.68
1518.96
1519.34
1517.96
1514.94
1510.43
1504.48
1497.04
1488.05
1477.42
1465
1450.68
1434.3
1415.71
1394.71
1371.15
1344.84
1315.58
1283.2
1247.52
1208.37
1165.62
1119.18
1068.96
1014.95
957.167
895.678
830.567
761.926
689.822
614.308
535.44
453.033
365.149
264.214
143.685
43.9917
6.51838
3.70612
2.49175
2.13876
1.94165
1.76133
0.124546
5.07363
1428.1
1433.35
1435.48
1435.97
1434.86
1432.22
1428.16
1422.67
1415.69
1407.14
1396.89
1384.82
1370.77
1354.58
1336.07
1315.04
1291.31
1264.66
1234.87
1201.73
1165.03
1124.56
1080.15
1031.66
978.957
921.992
860.737
795.206
725.438
651.476
573.384
491.266
405.014
312.925
209.443
97.2412
23.2092
2.60927
1.81205
1.39979
1.71605
1.95172
1.93248
1.91295
1.63282
11.4628
1344.4
1349.09
1351.08
1351.69
1350.87
1348.63
1345.03
1340.04
1333.56
1325.5
1315.71
1304.06
1290.36
1274.45
1256.13
1235.19
1211.42
1184.58
1154.42
1120.69
1083.15
1041.56
995.699
945.376
890.449
830.822
766.444
697.313
623.459
544.968
461.993
374.488
281.077
178.138
73.7478
14.2221
1.54166
1.05341
1.13931
1.37603
1.67926
1.84909
1.83197
1.7778
1.94091
4.1956
1259.98
1264.09
1265.99
1266.73
1266.2
1264.37
1261.27
1256.8
1250.86
1243.33
1234.06
1222.88
1209.61
1194.07
1176.05
1155.32
1131.65
1104.77
1074.42
1040.3
1002.13
959.638
912.561
860.683
803.83
741.891
674.814
602.606
525.369
443.32
356.511
263.742
162.638
63.3486
10.4484
0.96487
0.633579
0.75791
0.989122
1.18832
1.34725
1.45934
1.52023
1.58801
1.7548
1.20315
1175.02
1178.56
1180.39
1181.28
1181.05
1179.66
1177.06
1173.14
1167.78
1160.82
1152.1
1141.45
1128.69
1113.61
1095.99
1075.6
1052.18
1025.43
995.069
960.767
922.204
879.063
831.053
777.927
719.496
655.648
586.349
511.681
431.898
347.252
256.801
158.268
61.2494
9.20179
0.530106
0.274605
0.383613
0.573686
0.750098
0.904966
1.05104
1.18356
1.29403
1.3934
1.59073
1.50132
1089.7
1092.67
1094.45
1095.51
1095.61
1094.67
1092.59
1089.25
1084.49
1078.13
1070.02
1059.96
1047.77
1033.23
1016.12
996.196
973.168
946.737
916.57
882.316
843.615
800.112
751.483
697.456
637.835
572.519
501.535
425.111
343.617
256.676
161.929
65.4132
9.74348
0.2294
-0.0136844
0.0597393
0.212074
0.365773
0.519793
0.678564
0.838754
0.989816
1.12505
1.23647
1.3757
1.41687
1004.16
1006.55
1008.33
1009.56
1010
1009.54
1008.02
1005.28
1001.14
995.427
987.957
978.543
966.989
953.083
936.593
917.258
894.788
868.858
839.109
805.158
766.605
723.058
674.16
619.615
559.225
492.925
420.855
343.388
260.482
170.43
75.2714
12.2082
0.345201
-0.199836
-0.209307
-0.0955085
0.0311259
0.168955
0.322376
0.485312
0.649069
0.805935
0.953859
1.08658
1.21102
1.29454
918.52
920.338
922.132
923.545
924.358
924.396
923.462
921.357
917.883
912.85
906.068
897.35
886.501
873.308
857.54
838.932
817.183
791.954
762.861
729.489
691.401
648.164
599.382
544.741
484.046
417.307
344.823
266.782
181.776
90.1177
18.1855
0.438422
-0.423183
-0.435147
-0.362076
-0.265536
-0.148977
-0.0114099
0.141945
0.303471
0.466201
0.624396
0.776348
0.920357
1.0539
1.16042
832.9
834.114
835.94
837.534
838.753
839.338
839.035
837.608
834.839
830.527
824.48
816.512
806.431
794.034
779.092
761.343
740.484
716.164
687.981
655.49
618.214
575.677
527.443
473.169
412.687
346.136
273.836
195.038
108.309
29.846
1.35843
-0.754527
-0.794074
-0.659128
-0.55326
-0.44682
-0.322338
-0.181731
-0.0297419
0.128838
0.288722
0.444589
0.593197
0.732647
0.859343
0.961355
747.368
747.905
749.794
751.557
753.234
754.43
754.819
754.128
752.118
748.576
743.313
736.147
726.898
715.375
701.359
684.6
664.798
641.601
614.596
583.311
547.231
505.831
458.623
405.234
345.553
279.806
207.737
127.42
45.8721
4.05404
-0.94199
-1.08157
-0.969573
-0.839496
-0.730732
-0.614443
-0.484444
-0.343574
-0.194511
-0.0405264
0.113632
0.262606
0.401946
0.527963
0.635272
0.71228
662.063
661.643
663.661
665.586
667.805
669.709
670.881
671.006
669.821
667.108
662.68
656.369
648.011
637.432
624.435
608.787
590.207
568.351
542.802
513.072
478.609
438.834
393.194
341.297
283.103
218.61
146.084
66.3633
9.24765
-0.476639
-1.15694
-1.19085
-1.08702
-0.98712
-0.882701
-0.764615
-0.635191
-0.497318
-0.353242
-0.206118
-0.0607592
0.077479
0.203396
0.311909
0.39617
0.444378
577.121
575.084
577.343
579.507
582.426
585.19
587.277
588.326
588.052
586.235
582.699
577.292
569.874
560.299
548.398
533.971
516.763
496.456
472.647
444.841
412.459
374.86
331.42
281.731
225.713
162.537
89.9544
22.5828
-0.0303035
-1.34909
-1.34997
-1.29343
-1.2176
-1.12698
-1.02151
-0.903905
-0.777395
-0.644214
-0.506791
-0.368573
-0.2342
-0.10908
0.00126805
0.0911546
0.153437
0.177466
491.662
487.758
490.525
493.169
497.033
500.88
504.066
506.179
506.921
506.078
503.488
499.029
492.589
484.059
473.312
460.188
444.481
425.913
404.117
378.62
348.825
314.036
273.548
226.893
173.483
110.808
42.1157
3.21009
-1.23661
-1.59022
-1.51702
-1.43193
-1.35202
-1.25812
-1.15119
-1.03524
-0.912624
-0.785236
-0.655651
-0.5275
-0.405371
-0.294353
-0.199993
-0.12782
-0.0844199
-0.0785863
403.695
399.787
402.782
406.441
411.61
416.83
421.339
424.682
426.555
426.759
425.165
421.682
416.24
408.775
399.21
387.441
373.325
356.651
337.125
314.323
287.672
256.443
219.845
177.186
126.815
65.6927
11.3418
-1.03393
-1.70451
-1.7041
-1.62699
-1.55502
-1.47361
-1.37792
-1.27198
-1.15906
-1.04124
-0.920543
-0.799634
-0.68216
-0.572557
-0.475607
-0.396282
-0.339653
-0.311314
-0.318039
315.364
310.253
313.756
319.259
326.263
333.253
339.343
344.078
347.175
348.477
347.899
345.395
340.944
334.534
326.148
315.749
303.273
288.606
271.561
251.816
228.875
202.056
170.457
132.68
85.3234
30.7096
1.12608
-1.77535
-1.91691
-1.82264
-1.74287
-1.6696
-1.58478
-1.48875
-1.38499
-1.27592
-1.16357
-1.05012
-0.938299
-0.831628
-0.734226
-0.65042
-0.584432
-0.540668
-0.523536
-0.537996
227.046
217.963
222.971
231.506
241.183
250.448
258.46
264.771
269.173
271.59
272.013
270.457
266.952
261.549
254.295
245.222
234.356
221.698
207.208
190.728
171.953
150.46
125.175
93.4902
50.876
8.36496
-1.3517
-1.97985
-1.98516
-1.90829
-1.84385
-1.77133
-1.68599
-1.59147
-1.49085
-1.38627
-1.27986
-1.17396
-1.07128
-0.975121
-0.88916
-0.817192
-0.762416
-0.72892
-0.719699
-0.73826
126.812
121.368
130.007
143.573
156.701
168.485
178.587
186.638
192.447
196.021
197.445
196.79
194.137
189.611
183.317
175.354
165.842
154.912
142.779
129.597
115.586
100.955
83.7973
59.1494
24.9342
0.971681
-1.85342
-2.09492
-2.05181
-1.99782
-1.93848
-1.86472
-1.77952
-1.68711
-1.59005
-1.49038
-1.39026
-1.29203
-1.19831
-1.11209
-1.03653
-0.974758
-0.929625
-0.903945
-0.900065
-0.920314
28.3197
35.084
44.6629
60.4438
75.8337
89.1453
100.287
109.398
116.26
120.768
123.026
123.108
121.105
117.231
111.643
104.507
96.0584
86.6404
77.0583
67.9141
60.1503
55.2401
49.7539
33.085
6.66606
-1.53037
-2.22914
-2.20278
-2.14439
-2.09263
-2.02832
-1.95137
-1.86626
-1.77608
-1.68284
-1.5884
-1.49479
-1.40425
-1.3192
-1.24222
-1.17599
-1.12305
-1.08572
-1.06606
-1.06574
-1.08626
-1.21598
2.07456
4.08683
10.154
17.4121
25.6288
33.0431
40.0856
46.3121
50.4665
52.5992
52.8101
51.1808
48.0663
43.668
38.1892
31.9667
25.5341
20.5695
17.5537
16.6453
19.5809
24.6632
15.8621
-0.667442
-2.33056
-2.38834
-2.29777
-2.23948
-2.17946
-2.10867
-2.02967
-1.94554
-1.8582
-1.76925
-1.6804
-1.59351
-1.5106
-1.43383
-1.36539
-1.30748
-1.26213
-1.23118
-1.21617
-1.21821
-1.23822
-1.76239
-1.26579
-1.43273
-1.45637
-0.956596
1.3836
4.02216
6.53874
7.89941
8.58888
8.57495
7.9814
6.90988
5.72287
4.61779
3.7192
3.20501
2.62709
1.69354
0.65188
-0.105302
0.230129
3.0201
-0.390098
-2.47823
-2.54163
-2.46564
-2.38131
-2.31676
-2.25001
-2.17663
-2.09832
-2.01676
-1.93331
-1.84939
-1.76657
-1.68658
-1.61121
-1.54232
-1.48174
-1.43124
-1.39244
-1.36677
-1.35539
-1.35899
-1.37808
-1.72157
-1.69304
-1.69569
-1.65161
-1.66423
-1.7633
-1.94743
-2.12546
-2.06323
-1.7973
-1.70018
-1.74555
-1.9513
-2.20261
-2.44198
-2.61325
-2.62197
-2.64774
-2.6297
-2.66793
-2.66728
-2.63452
-2.69736
-2.52137
-2.54714
-2.56209
-2.50098
-2.4351
-2.37185
-2.30463
-2.23285
-2.1577
-2.08031
-2.00187
-1.92372
-1.84737
-1.7744
-1.70642
-1.645
-1.59164
-1.54776
-1.51464
-1.49338
-1.48486
-1.4895
-1.50752
-1.76027
-1.70272
-1.73253
-1.72821
-1.7483
-1.77807
-1.81594
-1.84968
-1.89621
-2.00192
-2.13772
-2.23849
-2.30904
-2.35764
-2.37832
-2.35672
-2.31344
-2.32195
-2.38292
-2.45582
-2.52956
-2.60017
-2.66183
-2.66834
-2.61409
-2.57633
-2.52376
-2.46801
-2.40945
-2.3464
-2.2793
-2.20925
-2.13736
-2.06486
-1.99309
-1.9235
-1.85757
-1.79673
-1.74232
-1.69558
-1.65763
-1.62947
-1.61195
-1.60572
-1.61103
-1.62794
-1.82569
-1.79334
-1.80691
-1.81247
-1.83365
-1.86488
-1.90002
-1.93019
-1.95059
-1.97149
-2.01097
-2.05541
-2.10095
-2.14713
-2.19481
-2.24768
-2.31687
-2.38588
-2.44711
-2.50482
-2.55827
-2.60497
-2.6388
-2.64651
-2.615
-2.57921
-2.5371
-2.48993
-2.43765
-2.38044
-2.31924
-2.25522
-2.18957
-2.12356
-2.0585
-1.99578
-1.93676
-1.88272
-1.83483
-1.7941
-1.76143
-1.73761
-1.72329
-1.71896
-1.72473
-1.7406
-1.9
-1.87917
-1.88592
-1.89394
-1.91228
-1.93998
-1.97274
-2.00565
-2.03643
-2.06969
-2.11015
-2.15388
-2.19847
-2.24327
-2.28862
-2.33621
-2.3889
-2.44208
-2.49093
-2.53602
-2.57576
-2.60775
-2.62828
-2.62988
-2.61211
-2.58496
-2.55019
-2.50912
-2.46244
-2.41095
-2.35569
-2.29783
-2.23859
-2.17918
-2.12086
-2.0649
-2.01253
-1.96489
-1.92299
-1.88769
-1.85972
-1.83971
-1.82817
-1.82547
-1.83163
-1.84661
-1.97496
-1.96413
-1.96738
-1.97508
-1.99034
-2.01313
-2.04106
-2.07176
-2.10438
-2.14006
-2.1793
-2.2205
-2.26246
-2.30465
-2.34697
-2.38971
-2.43328
-2.47656
-2.51777
-2.55564
-2.58825
-2.61336
-2.62823
-2.6291
-2.61677
-2.59479
-2.56488
-2.52848
-2.48667
-2.4404
-2.39074
-2.3388
-2.28575
-2.23273
-2.1809
-2.13141
-2.08533
-2.04366
-2.00727
-1.97688
-1.95311
-1.93647
-1.92739
-1.92612
-1.93266
-1.94692
-2.0498
-2.04697
-2.04891
-2.05596
-2.06893
-2.08796
-2.11185
-2.1393
-2.1696
-2.2027
-2.23831
-2.27563
-2.31394
-2.35278
-2.39189
-2.43108
-2.47011
-2.50819
-2.54412
-2.5766
-2.60398
-2.62437
-2.63584
-2.63652
-2.62665
-2.60785
-2.58157
-2.54914
-2.51167
-2.47019
-2.42573
-2.37934
-2.3321
-2.28509
-2.23936
-2.1959
-2.15567
-2.11951
-2.08815
-2.06222
-2.04224
-2.02863
-2.02173
-2.02176
-2.02866
-2.04233
-2.12382
-2.12645
-2.12841
-2.13516
-2.14663
-2.16308
-2.18394
-2.20837
-2.23574
-2.26565
-2.29769
-2.33131
-2.36599
-2.4013
-2.43689
-2.4724
-2.50738
-2.5411
-2.5725
-2.6004
-2.6234
-2.64006
-2.64898
-2.64911
-2.64046
-2.62391
-2.60057
-2.57159
-2.53807
-2.50101
-2.46139
-2.42019
-2.37839
-2.33697
-2.29687
-2.25898
-2.22411
-2.19297
-2.16619
-2.14429
-2.1277
-2.1168
-2.11185
-2.11303
-2.12024
-2.13341
-2.19608
-2.20223
-2.20472
-2.21158
-2.22213
-2.23682
-2.25535
-2.27716
-2.30173
-2.3286
-2.35736
-2.38754
-2.41873
-2.45052
-2.48253
-2.51433
-2.54541
-2.57508
-2.60242
-2.62635
-2.64573
-2.65939
-2.6663
-2.66579
-2.65781
-2.64293
-2.62203
-2.59611
-2.56618
-2.53321
-2.4981
-2.46174
-2.42501
-2.38878
-2.35388
-2.32108
-2.29108
-2.26448
-2.24181
-2.22351
-2.20996
-2.20145
-2.19824
-2.20043
-2.20795
-2.2207
-2.26622
-2.27416
-2.27731
-2.28463
-2.29477
-2.30826
-2.32498
-2.34456
-2.36657
-2.39062
-2.41634
-2.44332
-2.4712
-2.49959
-2.52813
-2.55638
-2.58383
-2.60982
-2.63355
-2.65408
-2.67043
-2.68167
-2.68699
-2.68591
-2.67841
-2.66489
-2.64609
-2.6229
-2.59626
-2.56704
-2.5361
-2.50423
-2.4722
-2.44075
-2.41062
-2.38246
-2.35686
-2.33434
-2.31534
-2.30025
-2.28939
-2.28302
-2.28135
-2.28447
-2.29228
-2.30472
-2.33397
-2.34229
-2.34598
-2.35421
-2.36436
-2.37708
-2.39241
-2.4101
-2.42986
-2.45138
-2.47433
-2.49837
-2.52316
-2.54836
-2.57363
-2.59856
-2.62266
-2.64533
-2.66585
-2.68342
-2.69721
-2.70645
-2.71051
-2.70903
-2.70198
-2.68971
-2.67284
-2.65217
-2.62856
-2.60281
-2.5757
-2.54794
-2.5202
-2.49312
-2.46732
-2.44334
-2.42169
-2.40281
-2.38709
-2.37486
-2.3664
-2.36194
-2.36165
-2.36562
-2.37373
-2.38593
-2.399
-2.4059
-2.41207
-2.42071
-2.43103
-2.44329
-2.45753
-2.47366
-2.49149
-2.51078
-2.53126
-2.55262
-2.57457
-2.59683
-2.61909
-2.64097
-2.66203
-2.68169
-2.69935
-2.71431
-2.7259
-2.73348
-2.73655
-2.73483
-2.72832
-2.7173
-2.7023
-2.68404
-2.66327
-2.64074
-2.61714
-2.59312
-2.56926
-2.54611
-2.52419
-2.50395
-2.48582
-2.47018
-2.45738
-2.44769
-2.44138
-2.43863
-2.43958
-2.4443
-2.45268
-2.46468
-2.46063
-2.46731
-2.47509
-2.48449
-2.49507
-2.50703
-2.52044
-2.5353
-2.55149
-2.56883
-2.5871
-2.60605
-2.62544
-2.64504
-2.66457
-2.68369
-2.702
-2.71899
-2.73411
-2.7468
-2.75648
-2.76268
-2.76498
-2.76319
-2.75729
-2.74755
-2.7344
-2.71845
-2.70038
-2.68084
-2.66048
-2.63986
-2.6195
-2.59987
-2.58139
-2.56446
-2.54946
-2.5367
-2.52648
-2.51906
-2.51465
-2.5134
-2.51545
-2.52082
-2.52941
-2.54118
-2.5197
-2.52682
-2.53576
-2.54596
-2.55684
-2.5686
-2.58137
-2.59518
-2.60997
-2.62561
-2.64192
-2.65872
-2.67583
-2.69305
-2.71014
-2.72681
-2.74267
-2.7573
-2.77022
-2.78095
-2.78904
-2.79409
-2.79582
-2.79406
-2.78883
-2.78034
-2.76897
-2.75524
-2.73971
-2.72298
-2.7056
-2.68807
-2.67085
-2.65435
-2.63893
-2.62495
-2.6127
-2.60249
-2.59457
-2.58914
-2.58641
-2.58648
-2.58947
-2.5954
-2.60415
-2.61569
-2.57699
-2.58472
-2.59464
-2.60556
-2.61673
-2.62836
-2.64063
-2.65357
-2.66715
-2.68129
-2.69588
-2.7108
-2.72589
-2.74101
-2.75594
-2.77042
-2.78413
-2.7967
-2.80773
-2.81681
-2.82359
-2.82775
-2.82907
-2.82743
-2.82288
-2.81559
-2.8059
-2.79422
-2.78106
-2.76691
-2.75225
-2.73753
-2.72314
-2.70944
-2.69675
-2.68537
-2.67559
-2.66764
-2.66174
-2.65809
-2.65683
-2.65807
-2.66189
-2.66831
-2.6772
-2.68853
-2.63315
-2.64146
-2.6522
-2.66373
-2.67517
-2.68672
-2.69857
-2.71076
-2.72329
-2.73612
-2.74921
-2.76248
-2.77581
-2.78909
-2.80211
-2.81466
-2.82648
-2.83726
-2.84668
-2.8544
-2.86014
-2.86362
-2.86469
-2.86326
-2.85938
-2.85322
-2.84507
-2.83528
-2.82426
-2.81245
-2.80026
-2.78807
-2.77623
-2.76504
-2.75479
-2.74575
-2.73816
-2.73223
-2.72814
-2.72606
-2.72612
-2.7284
-2.73296
-2.73981
-2.74885
-2.76004
-2.68871
-2.6975
-2.7089
-2.72093
-2.73258
-2.74407
-2.75554
-2.76707
-2.77866
-2.79036
-2.80215
-2.81399
-2.82579
-2.83744
-2.84879
-2.85964
-2.86981
-2.87906
-2.88712
-2.89373
-2.89864
-2.90164
-2.90258
-2.90143
-2.89823
-2.89313
-2.88639
-2.87831
-2.86924
-2.85954
-2.84957
-2.83966
-2.8301
-2.82117
-2.81312
-2.80617
-2.80054
-2.79641
-2.79395
-2.79327
-2.7945
-2.7977
-2.80292
-2.81017
-2.81935
-2.83043
-2.74414
-2.75328
-2.76517
-2.77756
-2.78936
-2.80074
-2.81186
-2.82279
-2.83358
-2.84429
-2.85496
-2.86557
-2.87603
-2.88626
-2.89613
-2.90552
-2.91427
-2.92221
-2.92913
-2.93483
-2.93909
-2.94174
-2.94267
-2.94184
-2.93931
-2.93522
-2.92978
-2.92325
-2.91594
-2.90815
-2.90018
-2.89232
-2.88482
-2.87791
-2.87183
-2.86676
-2.86288
-2.86037
-2.85933
-2.8599
-2.86216
-2.86617
-2.87197
-2.87956
-2.88885
-2.89982
-2.7998
-2.80917
-2.82138
-2.83399
-2.84583
-2.85707
-2.86784
-2.87823
-2.88832
-2.8982
-2.9079
-2.91743
-2.92672
-2.93571
-2.94432
-2.95245
-2.96
-2.96685
-2.97283
-2.97778
-2.98153
-2.98393
-2.98491
-2.98442
-2.98255
-2.97939
-2.97515
-2.97005
-2.96433
-2.95827
-2.95211
-2.94609
-2.94043
-2.93535
-2.93102
-2.92762
-2.9253
-2.9242
-2.92443
-2.92608
-2.92923
-2.93393
-2.94021
-2.94807
-2.95742
-2.96825
-2.85603
-2.86548
-2.87785
-2.89052
-2.90229
-2.91332
-2.92375
-2.93367
-2.94317
-2.95233
-2.9612
-2.96978
-2.97805
-2.98597
-2.9935
-3.00059
-3.00716
-3.01311
-3.01833
-3.02267
-3.02601
-3.02823
-3.02928
-3.02915
-3.02789
-3.02561
-3.02247
-3.01866
-3.01439
-3.00988
-3.00534
-3.00098
-2.99697
-2.9935
-2.99073
-2.9888
-2.98785
-2.98798
-2.9893
-2.99188
-2.99579
-3.00106
-3.00772
-3.01576
-3.02511
-3.03576
-2.91303
-2.92246
-2.9348
-2.94738
-2.95898
-2.96975
-2.97986
-2.98937
-2.99837
-3.00691
-3.01505
-3.0228
-3.03018
-3.03718
-3.04382
-3.05005
-3.05583
-3.06107
-3.06567
-3.06953
-3.07255
-3.07465
-3.0758
-3.076
-3.07532
-3.07384
-3.07171
-3.06907
-3.0661
-3.06297
-3.05988
-3.05697
-3.05442
-3.05237
-3.05096
-3.05031
-3.05053
-3.05172
-3.05397
-3.05734
-3.06187
-3.06759
-3.07454
-3.0827
-3.092
-3.10243
-2.97098
-2.98027
-2.99243
-3.00478
-3.01612
-3.02661
-3.03639
-3.04553
-3.05409
-3.06209
-3.06959
-3.07662
-3.08324
-3.08949
-3.09538
-3.10092
-3.10606
-3.11072
-3.11484
-3.11833
-3.12111
-3.12315
-3.12443
-3.12496
-3.12482
-3.12407
-3.12283
-3.12123
-3.11941
-3.1175
-3.11567
-3.11404
-3.11275
-3.11192
-3.11168
-3.11213
-3.11335
-3.11545
-3.11848
-3.12249
-3.12753
-3.13362
-3.14077
-3.14899
-3.15819
-3.16839
-3.02998
-3.03903
-3.05087
-3.06287
-3.07388
-3.08405
-3.09351
-3.1023
-3.11044
-3.11795
-3.12489
-3.13133
-3.13732
-3.14295
-3.14824
-3.15321
-3.15782
-3.16202
-3.16576
-3.16896
-3.1716
-3.17363
-3.17507
-3.17594
-3.17629
-3.1762
-3.17576
-3.17507
-3.17424
-3.17339
-3.17264
-3.17211
-3.1719
-3.17212
-3.17287
-3.17425
-3.17632
-3.17917
-3.18285
-3.18739
-3.19283
-3.1992
-3.2065
-3.21473
-3.22382
-3.23378
-3.09007
-3.09881
-3.11022
-3.1218
-3.13242
-3.14223
-3.15132
-3.15974
-3.16747
-3.17455
-3.18102
-3.18696
-3.19246
-3.19759
-3.2024
-3.2069
-3.21108
-3.2149
-3.21833
-3.22133
-3.22387
-3.22595
-3.22757
-3.22877
-3.22959
-3.2301
-3.23036
-3.23046
-3.23049
-3.23054
-3.23071
-3.2311
-3.2318
-3.23291
-3.2345
-3.23666
-3.23944
-3.24292
-3.24712
-3.2521
-3.25786
-3.26443
-3.27182
-3.28003