/*--------------------------------*- C++ -*----------------------------------*\
  =========                 |
  \\      /  F ield         | OpenFOAM: The Open Source CFD Toolbox
   \\    /   O peration     | Website:  https://openfoam.org
    \\  /    A nd           | Version:  7
     \\/     M anipulation  |
\*---------------------------------------------------------------------------*/
FoamFile
{
    version     2.0;
    format      ascii;
    class       volScalarField;
    location    "0.2";
    object      p_rgh;
}
// * * * * * * * * * * * * * * * * * * * * * * * * * * * * * * * * * * * * * //

dimensions      [1 -1 -2 0 0 0 0];

internalField   nonuniform List<scalar> 
9072
(
2322.12
2326.56
2333.02
2338.42
2341.59
2342.43
2341.22
2338.26
2333.76
2327.87
2320.71
2312.34
2302.76
2291.99
2279.99
2266.73
2252.15
2236.22
2218.89
2200.14
2179.98
2158.42
2135.58
2111.59
2086.7
2061.27
2035.8
2011
1987.77
1967.36
1951.35
1941.79
1941.28
1953.15
1981.67
2032.73
2112.75
2229.08
2388.65
2594.81
2838.64
3090.8
3306.76
3462.83
3550.23
3644.38
2321.4
2324.79
2329.64
2333.98
2336.5
2336.98
2335.57
2332.47
2327.87
2321.89
2314.62
2306.12
2296.41
2285.46
2273.27
2259.79
2244.97
2228.76
2211.14
2192.07
2171.56
2149.66
2126.45
2102.09
2076.85
2051.08
2025.31
2000.25
1976.84
1956.33
1940.33
1930.91
1930.68
1942.95
1971.82
2021.96
2099.56
2212.2
2367.2
2569.84
2815.98
3080.38
3314.71
3480.8
3561.21
3652.48
2320.33
2323.73
2327.08
2330.03
2331.52
2331.24
2329.29
2325.77
2320.81
2314.51
2306.93
2298.11
2288.06
2276.76
2264.17
2250.26
2234.98
2218.29
2200.14
2180.51
2159.43
2136.93
2113.12
2088.17
2062.36
2036.07
2009.83
1984.39
1960.7
1940.03
1924.02
1914.74
1914.82
1927.51
1956.84
2007.47
2085.22
2196.45
2347.32
2541.53
2776.53
3036.64
3284.65
3481.36
3596.72
3697.63
2318.76
2322.68
2325.12
2326.91
2327.36
2326.24
2323.59
2319.5
2314.05
2307.29
2299.27
2290.02
2279.52
2267.75
2254.67
2240.23
2224.39
2207.09
2188.31
2168.02
2146.25
2123.05
2098.53
2072.88
2046.38
2019.44
1992.61
1966.63
1942.49
1921.48
1905.21
1895.76
1895.73
1908.34
1937.5
1987.82
2064.63
2173.74
2320.51
2507.73
2732.74
2984.54
3238.02
3464.21
3627.46
3762.33
2316.72
2321.25
2323.22
2324.22
2323.84
2321.95
2318.64
2313.96
2307.98
2300.74
2292.25
2282.53
2271.56
2259.29
2245.68
2230.69
2214.26
2196.35
2176.91
2155.94
2133.46
2109.53
2084.26
2057.86
2030.61
2002.92
1975.37
1948.7
1923.9
1902.24
1885.35
1875.28
1874.56
1886.34
1914.42
1963.25
2037.86
2143.69
2285.68
2466.59
2684.63
2931.66
3189.6
3436.9
3639.9
3808.86
2314.21
2319.27
2321.02
2321.5
2320.5
2317.99
2314.09
2308.88
2302.41
2294.69
2285.75
2275.57
2264.12
2251.36
2237.24
2221.7
2204.69
2186.17
2166.08
2144.43
2121.23
2096.55
2070.51
2043.31
2015.24
1986.72
1958.32
1930.78
1905.08
1882.5
1864.61
1853.41
1851.4
1861.6
1887.67
1933.89
2005.09
2106.43
2242.76
2417.21
2629.3
2873.52
3136.05
3398.82
3631.15
3830.85
2311.22
2316.72
2318.39
2318.55
2317.09
2314.08
2309.7
2304.02
2297.1
2288.95
2279.58
2268.96
2257.06
2243.83
2229.22
2213.15
2195.57
2176.44
2155.71
2133.38
2109.46
2084.02
2057.18
2029.13
2000.17
1970.72
1941.33
1912.75
1885.94
1862.12
1842.86
1830.08
1826.19
1834.09
1857.29
1899.86
1966.46
2062.09
2191.66
2358.84
2564.51
2805.49
3071.17
3345.57
3598.91
3840.26
2307.77
2313.62
2315.3
2315.27
2313.48
2310.08
2305.31
2299.24
2291.93
2283.39
2273.63
2262.61
2250.29
2236.61
2221.52
2204.94
2186.81
2167.09
2145.73
2122.72
2098.07
2071.85
2044.17
2015.22
1985.31
1954.83
1924.32
1894.53
1866.37
1841.05
1820.06
1805.26
1798.94
1803.86
1823.36
1861.32
1922.17
2010.82
2132.3
2290.85
2488.63
2724.38
2990.33
3272.6
3541.47
3811.17
2303.87
2310.01
2311.75
2311.62
2309.6
2305.91
2300.82
2294.43
2286.79
2277.92
2267.81
2256.43
2243.72
2229.63
2214.08
2197.01
2178.35
2158.05
2136.07
2112.38
2086.99
2059.97
2031.42
2001.53
1970.58
1938.97
1907.22
1876.05
1846.34
1819.24
1796.19
1778.95
1769.68
1771.01
1786.03
1818.44
1872.43
1952.8
2064.65
2212.74
2400.29
2627.64
2889.71
3175.42
3456.21
3744.76
2299.53
2305.92
2307.76
2307.58
2305.4
2301.5
2296.18
2289.53
2281.62
2272.46
2262.05
2250.34
2237.28
2222.8
2206.83
2189.3
2170.13
2149.27
2126.66
2102.29
2076.16
2048.32
2018.86
1987.98
1955.93
1923.1
1889.99
1857.27
1825.81
1796.69
1771.27
1751.2
1738.52
1735.65
1745.5
1771.47
1817.52
1888.25
1988.75
2124.11
2298.4
2513.19
2766.12
3049.74
3339.32
3644.75
2294.79
2301.38
2303.32
2303.14
2300.86
2296.82
2291.31
2284.47
2276.34
2266.96
2256.29
2244.3
2230.92
2216.09
2199.73
2181.75
2162.09
2140.68
2117.47
2092.42
2065.53
2036.85
2006.46
1974.53
1941.31
1907.17
1872.58
1838.18
1804.79
1773.42
1745.34
1722.1
1705.58
1697.99
1701.99
1720.71
1757.78
1817.5
1904.81
2024.86
2182.24
2379.35
2616.76
2891.63
3185.9
3505.4
2289.65
2296.41
2298.45
2298.3
2295.96
2291.82
2286.2
2279.21
2270.92
2261.35
2250.47
2238.24
2224.59
2209.44
2192.71
2174.33
2154.19
2132.25
2108.44
2082.71
2055.06
2025.52
1994.16
1961.15
1926.7
1891.17
1855
1818.79
1783.29
1749.47
1718.48
1691.77
1671.01
1658.23
1655.8
1666.52
1693.64
1741.03
1813.27
1915.23
2051.69
2225.16
2439.44
2697.51
2990.35
3317.38
2284.12
2291.03
2293.15
2293.04
2290.69
2286.5
2280.8
2273.71
2265.31
2255.6
2244.56
2232.12
2218.23
2202.8
2185.74
2166.97
2146.39
2123.93
2099.52
2073.13
2044.71
2014.3
1981.95
1947.81
1912.09
1875.09
1837.25
1799.11
1761.36
1724.9
1690.79
1660.32
1635
1616.62
1607.26
1609.34
1625.63
1659.48
1714.87
1796.14
1907.83
2051.11
2233.21
2464.74
2747.35
3068.11
2278.2
2285.24
2287.42
2287.36
2285.02
2280.81
2275.08
2267.95
2259.48
2249.68
2238.51
2225.91
2211.82
2196.14
2178.78
2159.64
2138.64
2115.68
2090.7
2063.63
2034.44
2003.15
1969.79
1934.48
1897.43
1858.91
1819.31
1779.13
1739.01
1699.75
1662.32
1627.86
1597.71
1573.4
1556.69
1549.59
1554.34
1573.61
1610.75
1669.49
1753.69
1860.21
1999.14
2192.89
2453.2
2741.81
2271.91
2279.05
2281.26
2281.25
2278.95
2274.77
2269.05
2261.91
2253.41
2243.55
2232.29
2219.57
2205.31
2189.42
2171.78
2152.32
2130.91
2107.48
2081.93
2054.2
2024.24
1992.05
1957.66
1921.17
1882.74
1842.64
1801.2
1758.89
1716.29
1674.11
1633.2
1594.57
1559.36
1528.85
1504.47
1487.78
1480.45
1484.47
1502.64
1537.8
1591.85
1652.71
1737.27
1884.65
2108.33
2316.19
2265.25
2272.39
2274.67
2274.68
2272.46
2268.35
2262.68
2255.58
2247.09
2237.22
2225.91
2213.11
2198.72
2182.64
2164.78
2145.01
2123.24
2099.36
2073.27
2044.91
2014.2
1981.13
1945.71
1908.03
1868.22
1826.51
1783.21
1738.72
1693.56
1648.36
1603.87
1560.93
1520.49
1483.58
1451.27
1424.69
1405.04
1393.8
1392.83
1400.55
1410.31
1402.49
1430.55
1544.02
1719.72
1779.73
-3.07598
-3.08184
-3.07796
-3.06008
-3.02712
-2.9804
-2.92265
-2.85679
-2.78546
-2.71094
-2.63504
-2.55926
-2.48469
-2.41217
-2.34233
-2.27554
-2.21211
-2.15215
-2.09576
-2.04293
-1.99365
-1.94786
-1.90546
-1.86639
-1.83052
-1.79766
-1.76773
-1.74064
-1.71631
-1.69462
-1.67549
-1.65884
-1.64457
-1.63264
-1.623
-1.6156
-1.61066
-1.60806
-3.07588
-3.08207
-3.07933
-3.06248
-3.03144
-2.98449
-2.92688
-2.86091
-2.78924
-2.71425
-2.63783
-2.56153
-2.48647
-2.4135
-2.34326
-2.27613
-2.21243
-2.15224
-2.09567
-2.04271
-1.99331
-1.94743
-1.90494
-1.86569
-1.82976
-1.79686
-1.7669
-1.73978
-1.71542
-1.69372
-1.67458
-1.65793
-1.64368
-1.63178
-1.62221
-1.61491
-1.61014
-1.60767
-3.07833
-3.08469
-3.08294
-3.06662
-3.03471
-2.98942
-2.93188
-2.86556
-2.79332
-2.71766
-2.64054
-2.56356
-2.48789
-2.41438
-2.34368
-2.27618
-2.21216
-2.15174
-2.09499
-2.04189
-1.99239
-1.94643
-1.90388
-1.8647
-1.82863
-1.79568
-1.7657
-1.73857
-1.7142
-1.6925
-1.67337
-1.65674
-1.64253
-1.63068
-1.62118
-1.61397
-1.60937
-1.60681
-3.08323
-3.09044
-3.08985
-3.07384
-3.04228
-2.9964
-2.93826
-2.87114
-2.79795
-2.72132
-2.64325
-2.5654
-2.48896
-2.41479
-2.34355
-2.27561
-2.21125
-2.15058
-2.09365
-2.04044
-1.99084
-1.94481
-1.9022
-1.86296
-1.8269
-1.79395
-1.76399
-1.73688
-1.71252
-1.69084
-1.67174
-1.65515
-1.64099
-1.62921
-1.61979
-1.61268
-1.60813
-1.60548
-3.09062
-3.09948
-3.1003
-3.08431
-3.05241
-3.00546
-2.94612
-2.87766
-2.80312
-2.72516
-2.64589
-2.56696
-2.4896
-2.41467
-2.34282
-2.2744
-2.20967
-2.14875
-2.09164
-2.03831
-1.98863
-1.94253
-1.89989
-1.86062
-1.8246
-1.79169
-1.76177
-1.73469
-1.71037
-1.68873
-1.66967
-1.65314
-1.63905
-1.62735
-1.61801
-1.61098
-1.60644
-1.60371
-3.10074
-3.11192
-3.11441
-3.0981
-3.06525
-3.01668
-2.95549
-2.88513
-2.80877
-2.72913
-2.64838
-2.56818
-2.48976
-2.41398
-2.34146
-2.27253
-2.20742
-2.14623
-2.08894
-2.03548
-1.98573
-1.93959
-1.89695
-1.8577
-1.82174
-1.7889
-1.75904
-1.73202
-1.70776
-1.68617
-1.66718
-1.65073
-1.63672
-1.6251
-1.61583
-1.60886
-1.60429
-1.60149
-3.11396
-3.12802
-3.1324
-3.11542
-3.08104
-3.03015
-2.96644
-2.89359
-2.81491
-2.73321
-2.6507
-2.56901
-2.48939
-2.41267
-2.33944
-2.26997
-2.20447
-2.14299
-2.08551
-2.03194
-1.98213
-1.93598
-1.89338
-1.8542
-1.81832
-1.78557
-1.7558
-1.72886
-1.70467
-1.68316
-1.66426
-1.6479
-1.63398
-1.62244
-1.61323
-1.60631
-1.60169
-1.59883
-3.13075
-3.14814
-3.15471
-3.13656
-3.10002
-3.04605
-2.97908
-2.90308
-2.82157
-2.73741
-2.65282
-2.56944
-2.48846
-2.4107
-2.3367
-2.26668
-2.20077
-2.139
-2.08133
-2.02766
-1.97783
-1.93172
-1.88919
-1.85011
-1.81435
-1.7817
-1.75204
-1.7252
-1.70111
-1.67971
-1.66091
-1.64465
-1.63083
-1.61937
-1.61022
-1.60332
-1.59866
-1.59574
-3.15189
-3.17281
-3.1819
-3.16195
-3.12249
-3.06455
-2.9935
-2.91365
-2.82875
-2.74171
-2.65475
-2.56944
-2.48695
-2.40806
-2.33322
-2.2626
-2.19626
-2.13421
-2.07637
-2.02263
-1.97282
-1.92679
-1.88438
-1.84543
-1.8098
-1.77729
-1.74775
-1.72104
-1.69708
-1.67581
-1.65713
-1.64099
-1.62727
-1.61588
-1.60678
-1.59989
-1.59519
-1.59223
-3.17866
-3.20274
-3.21484
-3.19213
-3.14878
-3.08582
-3.00975
-2.9253
-2.83643
-2.74608
-2.65642
-2.56898
-2.48482
-2.40467
-2.32893
-2.25768
-2.19092
-2.12859
-2.07061
-2.01685
-1.96711
-1.9212
-1.87893
-1.84014
-1.80467
-1.77231
-1.74293
-1.71638
-1.69258
-1.67145
-1.65292
-1.6369
-1.62328
-1.61198
-1.60292
-1.59605
-1.59131
-1.58831
-3.2134
-3.23906
-3.25473
-3.22782
-3.17931
-3.11002
-3.02787
-2.93796
-2.84449
-2.75038
-2.65773
-2.56795
-2.48199
-2.40049
-2.32378
-2.25188
-2.1847
-2.12213
-2.06406
-2.01032
-1.9607
-1.91494
-1.87286
-1.83425
-1.79895
-1.76678
-1.73758
-1.71122
-1.6876
-1.66665
-1.64828
-1.63239
-1.61888
-1.60765
-1.59864
-1.59178
-1.58701
-1.58399
-3.26038
-3.28352
-3.30331
-3.26995
-3.21451
-3.13731
-3.04782
-2.95153
-2.85278
-2.75445
-2.65852
-2.5662
-2.47834
-2.39543
-2.31771
-2.24516
-2.17759
-2.11482
-2.0567
-2.00304
-1.95357
-1.90801
-1.86613
-1.82772
-1.79263
-1.76068
-1.7317
-1.70556
-1.68216
-1.6614
-1.6432
-1.62745
-1.61405
-1.60291
-1.59395
-1.5871
-1.58231
-1.57927
-3.32825
-3.339
-3.36305
-3.31973
-3.25489
-3.16784
-3.06958
-2.9659
-2.86117
-2.75814
-2.65861
-2.56359
-2.47373
-2.38938
-2.31066
-2.23748
-2.16956
-2.10665
-2.04854
-1.99499
-1.94571
-1.90037
-1.85873
-1.82057
-1.78573
-1.75402
-1.7253
-1.69941
-1.67625
-1.65571
-1.63769
-1.62209
-1.60881
-1.59775
-1.58885
-1.58202
-1.57722
-1.57417
-3.43254
-3.41023
-3.43707
-3.37859
-3.30093
-3.20172
-3.09308
-2.98093
-2.86949
-2.7613
-2.65787
-2.55998
-2.46806
-2.38226
-2.30257
-2.22879
-2.16058
-2.09759
-2.03955
-1.98616
-1.93709
-1.89202
-1.85065
-1.81278
-1.77822
-1.7468
-1.71837
-1.69277
-1.66987
-1.64956
-1.63174
-1.6163
-1.60314
-1.59219
-1.58335
-1.57655
-1.57175
-1.56869
-3.60895
-3.50809
-3.52921
-3.44824
-3.35309
-3.23897
-3.11818
-2.99644
-2.87761
-2.7638
-2.6562
-2.55531
-2.46128
-2.37403
-2.2934
-2.21908
-2.15063
-2.08763
-2.0297
-1.97652
-1.92772
-1.88294
-1.84189
-1.80434
-1.77012
-1.73903
-1.71093
-1.68564
-1.66302
-1.64296
-1.62535
-1.61008
-1.59706
-1.58621
-1.57746
-1.5707
-1.5659
-1.56283
-3.89962
-3.66683
-3.6441
-3.53117
-3.41191
-3.2797
-3.14482
-3.01233
-2.88538
-2.76556
-2.65358
-2.54957
-2.45342
-2.36476
-2.28326
-2.20846
-2.13982
-2.07685
-2.01909
-1.96616
-1.91766
-1.87322
-1.83254
-1.79536
-1.76151
-1.7308
-1.70304
-1.67808
-1.65576
-1.63596
-1.61857
-1.60348
-1.5906
-1.57987
-1.5712
-1.56449
-1.55969
-1.55662
2254.31
2261.19
2263.69
2263.74
2261.64
2257.68
2252.14
2245.15
2236.75
2226.92
2215.61
2202.73
2188.21
2171.92
2153.76
2133.6
2111.32
2086.81
2059.95
2030.65
1998.84
1964.46
1927.5
1888.01
1846.08
1801.89
1755.68
1707.78
1658.6
1608.64
1558.45
1508.67
1459.92
1412.81
1367.91
1325.8
1287.2
1252.41
1217.87
1164.09
1040.58
806.163
811.423
994.343
1078.2
772.768
2237.87
2244.47
2246.99
2247.15
2245.28
2241.58
2236.32
2229.59
2221.42
2211.77
2200.58
2187.75
2173.18
2156.74
2138.31
2117.75
2094.92
2069.68
2041.91
2011.47
1978.26
1942.2
1903.23
1861.35
1816.59
1769.06
1718.93
1666.4
1611.76
1555.35
1497.51
1438.59
1378.87
1318.55
1257.78
1196.61
1133.86
1062.09
949.517
665.338
284.64
93.9916
107.829
317.862
649.75
569.886
2220
2226.22
2228.65
2228.92
2227.29
2223.91
2219
2212.63
2204.79
2195.43
2184.47
2171.8
2157.3
2140.84
2122.27
2101.43
2078.17
2052.33
2023.75
1992.28
1957.77
1920.1
1879.19
1834.96
1787.42
1736.58
1682.55
1625.44
1565.43
1502.71
1437.45
1369.8
1299.83
1227.57
1152.84
1073.82
982.221
813.239
385.706
67.4292
11.5142
9.92791
8.11041
10.2218
342.603
627.216
2200.87
2206.64
2208.92
2209.3
2207.92
2204.9
2200.39
2194.44
2187
2178.02
2167.38
2154.96
2140.64
2124.27
2105.67
2084.67
2061.11
2034.8
2005.54
1973.16
1937.48
1898.33
1855.59
1809.14
1758.92
1704.91
1647.13
1585.64
1520.53
1451.89
1379.78
1304.27
1225.4
1142.99
1055.11
954.162
730.192
229.748
9.91773
4.56719
3.26196
2.90058
2.76253
2.94605
18.11
675.816
2180.66
2185.91
2188.03
2188.53
2187.42
2184.78
2180.71
2175.22
2168.25
2159.7
2149.45
2137.38
2123.33
2107.14
2088.62
2067.6
2043.87
2017.21
1987.43
1954.29
1917.59
1877.12
1832.71
1784.21
1731.51
1674.55
1613.29
1547.76
1478
1404.03
1325.94
1243.82
1157.57
1065.48
961.967
695.958
155.169
3.84733
2.62886
2.16957
2.47739
2.71377
2.70407
2.75347
2.951
690.427
2159.55
2164.24
2166.24
2166.85
2166.02
2163.78
2160.18
2155.19
2148.72
2140.66
2130.87
2119.21
2105.51
2089.6
2071.28
2050.35
2026.57
1999.73
1969.57
1935.85
1898.31
1856.72
1810.85
1760.53
1705.6
1645.98
1581.6
1512.47
1438.61
1360.12
1277.15
1189.64
1096.23
993.236
707.856
128.679
2.7764
1.91262
1.96058
2.19274
2.49539
2.66548
2.65048
2.6081
2.85
340.362
2137.73
2141.84
2143.74
2144.48
2143.95
2142.13
2139.02
2134.55
2128.62
2121.09
2111.81
2100.63
2087.36
2071.82
2053.8
2033.07
2009.4
1982.53
1952.17
1918.05
1879.88
1837.39
1790.31
1738.43
1681.58
1619.64
1552.57
1480.36
1403.12
1321.07
1234.26
1141.49
1040.33
763.066
136.799
2.29437
1.55013
1.63941
1.86739
2.06622
2.22511
2.33726
2.39849
2.46818
2.6483
7.05563
2115.37
2118.91
2120.73
2121.63
2121.4
2120.01
2117.41
2113.49
2108.13
2101.17
2092.45
2081.8
2069.04
2053.96
2036.34
2015.95
1992.53
1965.78
1935.42
1901.12
1862.55
1819.41
1771.4
1718.28
1659.85
1596
1526.7
1452.03
1372.25
1287.6
1197.15
1098.59
856.378
178.852
1.97864
1.25057
1.32709
1.51433
1.69049
1.84533
1.9914
2.12394
2.23445
2.33413
2.53313
2.43079
2092.65
2095.61
2097.4
2098.46
2098.55
2097.61
2095.54
2092.2
2087.43
2081.08
2072.96
2062.9
2050.71
2036.18
2019.07
1999.14
1976.12
1949.68
1919.52
1885.26
1846.56
1803.06
1754.43
1700.4
1640.78
1575.47
1504.48
1428.06
1346.56
1259.62
1164.86
984.057
265.637
1.86774
1.02702
1.06576
1.21524
1.36874
1.52275
1.68151
1.84171
1.99277
2.12801
2.23947
2.37872
2.41942
2069.7
2072.09
2073.87
2075.1
2075.55
2075.08
2073.56
2070.82
2066.68
2060.97
2053.5
2044.09
2032.53
2018.63
2002.14
1982.8
1960.33
1934.4
1904.65
1870.7
1832.15
1788.6
1739.7
1685.16
1624.77
1558.47
1486.4
1408.93
1326.03
1235.97
1130.94
415.12
2.2515
0.909856
0.858818
0.97025
1.09669
1.2345
1.38792
1.55086
1.71462
1.87148
2.01941
2.15214
2.27659
2.35966
2046.66
2048.48
2050.27
2051.69
2052.5
2052.54
2051.6
2049.5
2046.02
2040.99
2034.21
2025.49
2014.64
2001.45
1985.68
1967.07
1945.32
1920.09
1891
1857.63
1819.54
1776.3
1727.52
1672.88
1612.19
1545.45
1472.96
1394.92
1309.92
1218.16
632.873
14.7378
0.771062
0.696258
0.766282
0.862621
0.979167
1.11673
1.27009
1.43161
1.59434
1.75254
1.90449
2.0485
2.18204
2.2885
2023.64
2024.85
2026.68
2028.27
2029.49
2030.08
2029.77
2028.35
2025.58
2021.27
2015.22
2007.25
1997.17
1984.77
1969.83
1952.08
1931.22
1906.9
1878.72
1846.23
1808.95
1766.42
1718.18
1663.91
1603.43
1536.87
1464.57
1385.78
1299.03
925.81
91.3464
0.602602
0.403263
0.53187
0.637494
0.743921
0.868403
1.00901
1.161
1.31958
1.47946
1.63533
1.78394
1.92339
2.05008
2.15209
2000.7
2001.24
2003.13
2004.89
2006.57
2007.77
2008.15
2007.46
2005.45
2001.91
1996.65
1989.48
1980.23
1968.71
1954.69
1937.94
1918.13
1894.94
1867.93
1836.65
1800.57
1759.17
1711.96
1658.57
1598.89
1533.14
1461.07
1380.75
1226.15
284.424
0.672942
0.185133
0.284209
0.413859
0.522605
0.638894
0.768894
0.909764
1.05883
1.21281
1.36697
1.51594
1.65528
1.7813
1.88861
1.96562
1978
1977.58
1979.59
1981.52
1983.74
1985.64
1986.81
1986.94
1985.75
1983.04
1978.61
1972.3
1963.94
1953.36
1940.37
1924.72
1906.14
1884.28
1858.73
1829
1794.54
1754.77
1709.13
1657.23
1599.04
1534.54
1462.02
1382.25
585.458
1.61447
0.180572
0.125721
0.228936
0.328815
0.433233
0.551319
0.680744
0.818617
0.962694
1.10982
1.25518
1.39341
1.51933
1.62784
1.7121
1.76031
1955.65
1953.61
1955.87
1958.04
1960.96
1963.72
1965.81
1966.86
1966.58
1964.77
1961.23
1955.82
1948.4
1938.83
1926.93
1912.5
1895.29
1874.99
1851.18
1823.37
1790.99
1753.39
1709.95
1660.26
1604.24
1541.07
1468.48
1074.25
93.7261
0.120178
0.0311246
0.0851321
0.160937
0.251547
0.357026
0.474627
0.601137
0.734319
0.871741
1.00996
1.14433
1.26945
1.3798
1.46969
1.53197
1.556
1932.79
1928.89
1931.65
1934.3
1938.16
1942.01
1945.19
1947.31
1948.05
1947.2
1944.62
1940.16
1933.72
1925.19
1914.44
1901.32
1885.61
1867.04
1845.24
1819.75
1789.95
1755.16
1714.68
1668.02
1614.61
1551.93
1483.09
366.407
0.453513
-0.142647
-0.0758747
0.00919717
0.0891101
0.183008
0.289938
0.405886
0.528505
0.655893
0.785478
0.91363
1.03576
1.14678
1.24114
1.31331
1.35671
1.36254
1907.42
1903.51
1906.51
1910.17
1915.33
1920.55
1925.06
1928.41
1930.28
1930.48
1928.89
1925.41
1919.96
1912.5
1902.93
1891.17
1877.05
1860.38
1840.85
1818.05
1791.4
1760.17
1723.57
1680.91
1630.54
1569.45
857.272
17.6304
-0.183218
-0.200042
-0.123257
-0.0512946
0.0301157
0.125805
0.231749
0.34467
0.462485
0.583184
0.704093
0.821567
0.931169
1.02812
1.10744
1.16407
1.19241
1.18569
1881.68
1876.57
1880.08
1885.58
1892.58
1899.57
1905.67
1910.4
1913.5
1914.8
1914.22
1911.72
1907.27
1900.86
1892.47
1882.07
1869.59
1854.93
1837.88
1818.14
1795.2
1768.38
1736.78
1699
1651.64
1535.02
247.696
-0.111788
-0.348902
-0.256341
-0.176547
-0.103281
-0.0184625
0.0775772
0.181332
0.290398
0.402755
0.516206
0.628024
0.734695
0.832097
0.915903
0.98189
1.02565
1.04279
1.02833
1855.93
1846.84
1851.86
1860.42
1870.1
1879.37
1887.38
1893.69
1898.09
1900.51
1900.93
1899.38
1895.87
1890.47
1883.21
1874.14
1863.28
1850.62
1836.13
1819.65
1800.87
1779.38
1754.09
1722.4
1679.73
773.805
2.19311
-0.346209
-0.356283
-0.279369
-0.214934
-0.142413
-0.0570661
0.0374512
0.138073
0.242645
0.349056
0.454965
0.55764
0.653799
0.73976
0.811728
0.866503
0.899999
0.90922
0.89066
1817.6
1812.03
1821.01
1834.92
1848.15
1859.97
1870.09
1878.15
1883.96
1887.53
1888.96
1888.3
1885.65
1881.13
1874.83
1866.87
1857.35
1846.42
1834.28
1821.09
1807.06
1792.41
1775.27
1750.59
1642.55
224.866
-0.114302
-0.402876
-0.360306
-0.3063
-0.246963
-0.173201
-0.0880068
0.00441137
0.101472
0.201134
0.301257
0.399489
0.493202
0.579425
0.65499
0.716759
0.761891
0.787572
0.791452
0.771203
1212.68
1248.14
1511.46
1754.95
1828.62
1842.67
1854.14
1863.39
1870.29
1874.82
1877.09
1877.18
1875.17
1871.29
1865.7
1858.55
1850.08
1840.62
1830.96
1821.65
1813.57
1808.4
1803.2
1786.05
734.102
8.62374
-0.472637
-0.448759
-0.390281
-0.338516
-0.27421
-0.19726
-0.11215
-0.0219691
0.071274
0.165716
0.259323
0.349861
0.434916
0.51189
0.578123
0.631064
0.668395
0.68805
0.688369
0.667852
50.9049
81.1734
250.048
657.455
1182.54
1546.57
1750.53
1837.61
1861.09
1866.08
1868.41
1868.72
1867.1
1863.93
1859.4
1853.69
1846.83
1830.84
1789.76
1712.5
1570.89
1464.2
1619.42
1375.95
131.386
-0.500393
-0.571602
-0.481055
-0.422765
-0.362749
-0.29196
-0.212963
-0.128828
-0.0414852
0.0474578
0.136312
0.223206
0.306109
0.382882
0.451317
0.509231
0.554579
0.585531
0.600538
0.598496
0.578493
0.116916
0.613521
0.446581
0.422936
46.6116
254.986
546.356
868.138
1149.82
1328
1439.72
1498.85
1505.96
1480.69
1418.11
1311.02
1158.21
935.632
698.609
482.969
273.395
175.06
319.874
131.694
-0.598921
-0.662341
-0.586337
-0.501997
-0.437452
-0.370702
-0.297318
-0.21901
-0.137454
-0.054002
0.0299185
0.112734
0.192729
0.268095
0.336985
0.397566
0.448067
0.486867
0.512541
0.523921
0.520314
0.501224
0.220339
0.248866
0.246219
0.290291
0.277677
0.17861
-0.00552925
-0.183552
14.583
78.3476
135.8
174.516
179.982
162.896
124.256
71.008
14.7587
-0.705835
-0.687791
-0.726029
-0.725377
-0.692616
-0.755457
-0.579466
-0.605231
-0.620186
-0.559075
-0.493197
-0.429943
-0.362721
-0.290941
-0.215797
-0.138409
-0.0599601
0.0181875
0.0945372
0.167506
0.235486
0.296907
0.350264
0.394143
0.427264
0.448524
0.457042
0.452401
0.434382
0.244237
0.301784
0.271973
0.27629
0.256199
0.226431
0.188564
0.154825
0.108293
0.00258609
-0.13323
-0.234027
-0.304555
-0.353146
-0.373814
-0.352222
-0.308937
-0.317447
-0.378414
-0.451314
-0.525061
-0.595671
-0.657324
-0.663833
-0.609583
-0.571832
-0.519254
-0.463505
-0.404946
-0.341898
-0.274801
-0.204748
-0.132858
-0.0603525
0.0114159
0.0810042
0.146937
0.207775
0.26218
0.308921
0.346872
0.375034
0.392556
0.398782
0.39347
0.376561
0.241409
0.273765
0.260188
0.254635
0.233446
0.20222
0.167085
0.136913
0.116511
0.0956112
0.0560972
0.0116017
-0.0338858
-0.0800435
-0.127713
-0.18058
-0.249774
-0.318776
-0.380012
-0.437719
-0.491174
-0.537871
-0.57168
-0.579266
-0.547828
-0.512113
-0.469999
-0.422831
-0.370551
-0.313341
-0.252142
-0.188118
-0.122473
-0.0564586
0.00859641
0.0713191
0.130343
0.18438
0.232275
0.273004
0.30567
0.32949
0.343811
0.348142
0.342367
0.326502
0.229698
0.25053
0.243773
0.235758
0.217418
0.189719
0.156953
0.124046
0.093266
0.0600063
0.019504
-0.0242809
-0.0688209
-0.11358
-0.158921
-0.20651
-0.259201
-0.312385
-0.36123
-0.406327
-0.446069
-0.478058
-0.498535
-0.499881
-0.482138
-0.455266
-0.420488
-0.379418
-0.332745
-0.28125
-0.225989
-0.168134
-0.10889
-0.0494804
0.00883819
0.0647999
0.11717
0.164805
0.206705
0.242007
0.269976
0.289987
0.301528
0.304232
0.298068
0.283091
0.21733
0.228169
0.224912
0.217216
0.201951
0.179169
0.15123
0.120532
0.0879126
0.0522294
0.0129664
-0.0282796
-0.0701944
-0.112364
-0.154681
-0.197419
-0.240983
-0.284266
-0.325474
-0.363347
-0.395963
-0.421063
-0.435886
-0.436503
-0.424215
-0.4025
-0.372582
-0.336189
-0.294376
-0.24811
-0.198446
-0.146509
-0.0934525
-0.0404336
0.0113912
0.0608858
0.106963
0.148631
0.185027
0.215418
0.239186
0.25582
0.264908
0.266171
0.259633
0.24537
0.205091
0.20792
0.205981
0.198933
0.185957
0.166928
0.143038
0.115595
0.0852872
0.0521881
0.0165645
-0.0207732
-0.05906
-0.0978925
-0.136996
-0.176193
-0.21522
-0.253297
-0.289228
-0.321714
-0.34909
-0.369487
-0.380945
-0.381566
-0.371695
-0.352967
-0.326682
-0.294243
-0.256778
-0.2153
-0.170837
-0.124448
-0.0772119
-0.0302022
0.0155325
0.0589871
0.099219
0.13538
0.166737
0.192668
0.212652
0.226262
0.23316
0.233131
0.226235
0.212558
0.193673
0.191038
0.189074
0.182328
0.170863
0.154406
0.133551
0.109121
0.0817502
0.0518352
0.0197916
-0.0138331
-0.0485063
-0.0838135
-0.119397
-0.154907
-0.189892
-0.22361
-0.255017
-0.282914
-0.305923
-0.322581
-0.331496
-0.331627
-0.322977
-0.306423
-0.283078
-0.254099
-0.220579
-0.183522
-0.143901
-0.102699
-0.0608997
-0.0194803
0.0206177
0.0585086
0.0933807
0.124516
0.151298
0.173201
0.189786
0.200692
0.205639
0.204461
0.197244
0.184074
0.184005
0.17786
0.175369
0.168509
0.157955
0.14327
0.124741
0.102923
0.078354
0.0514818
0.0227306
-0.00745733
-0.0386479
-0.0704375
-0.10244
-0.134242
-0.165327
-0.194995
-0.222332
-0.246272
-0.265651
-0.27931
-0.286222
-0.285704
-0.277727
-0.262848
-0.241944
-0.21602
-0.186094
-0.153121
-0.118011
-0.0816502
-0.0449205
-0.00869012
0.0262096
0.0590071
0.0890074
0.115603
0.138274
0.156575
0.170129
0.178632
0.18185
0.179652
0.172139
0.159388
0.176468
0.168523
0.165369
0.158055
0.147915
0.134423
0.117702
0.098128
0.0761154
0.05206
0.0263473
-0.00063871
-0.0285154
-0.0569091
-0.0854426
-0.113694
-0.141144
-0.167137
-0.190865
-0.2114
-0.227756
-0.238992
-0.244313
-0.243232
-0.235723
-0.222204
-0.203403
-0.180216
-0.153573
-0.124361
-0.0934207
-0.061547
-0.0295123
0.00192922
0.0320611
0.0602227
0.0858225
0.108344
0.127343
0.142435
0.153295
0.159663
0.161338
0.158218
0.150406
0.137967
0.171315
0.162994
0.159304
0.151071
0.140926
0.128197
0.112873
0.0951845
0.0754222
0.053899
0.0309473
0.00690838
-0.0178779
-0.0430779
-0.0683458
-0.0932793
-0.117383
-0.14005
-0.160567
-0.178137
-0.191931
-0.201174
-0.205237
-0.203748
-0.196697
-0.184424
-0.167557
-0.146893
-0.123278
-0.0975313
-0.0704205
-0.0426579
-0.0149168
0.0121592
0.0379646
0.0619424
0.0835917
0.102471
0.118194
0.130426
0.138884
0.143341
0.143629
0.139665
0.131554
0.11935
0.168878
0.161979
0.155803
0.147169
0.13685
0.124593
0.110347
0.0942182
0.0763876
0.057094
0.0366186
0.0152583
-0.00669472
-0.0289538
-0.0512106
-0.073096
-0.094148
-0.113816
-0.131469
-0.146432
-0.158019
-0.165601
-0.168674
-0.166955
-0.16044
-0.149418
-0.134425
-0.116164
-0.0953926
-0.0728574
-0.0492596
-0.0252384
-0.00138126
0.0217649
0.0436919
0.0639319
0.0820595
0.0976945
0.1105
0.120184
0.126499
0.12925
0.128296
0.123575
0.115194
0.103202
0.169841
0.163161
0.155385
0.145982
0.135401
0.123448
0.110034
0.095179
0.0789895
0.0616456
0.0433773
0.0244288
0.00503673
-0.0145608
-0.0340911
-0.0532195
-0.0715263
-0.0885154
-0.103636
-0.11632
-0.12601
-0.132204
-0.134509
-0.132712
-0.126818
-0.117071
-0.103923
-0.0879771
-0.0699031
-0.0503694
-0.0300074
-0.00938872
0.0109726
0.0306081
0.049087
0.0660117
0.0810178
0.0937758
0.103993
0.111415
0.115829
0.117073
0.115029
0.109657
0.101065
0.0892967
0.173373
0.16625
0.15731
0.147109
0.136231
0.124476
0.111706
0.0978946
0.0831036
0.0674649
0.0511528
0.0343516
0.0172427
2.17289e-05
-0.017072
-0.0337371
-0.0496019
-0.0642294
-0.0771451
-0.0878733
-0.0959629
-0.10102
-0.102745
-0.100985
-0.0957571
-0.0872697
-0.0759022
-0.0621659
-0.0466388
-0.0299061
-0.0125245
0.00500092
0.0222186
0.0387219
0.0541388
0.0681262
0.0803685
0.0905795
0.0985054
0.103928
0.106667
0.106588
0.103598
0.0976719
0.0889207
0.0773857
0.178677
0.170948
0.161032
0.150112
0.138942
0.127307
0.115044
0.102104
0.0885197
0.0743761
0.0597856
0.0448741
0.0297769
0.0146574
-0.000274743
-0.0147548
-0.0284646
-0.0410321
-0.0520567
-0.0611414
-0.0679193
-0.0720794
-0.0733961
-0.0717616
-0.0672099
-0.0599248
-0.0502291
-0.0385533
-0.0253886
-0.0112368
0.0034207
0.0181423
0.0325319
0.0462333
0.0589215
0.0702966
0.0800836
0.0880336
0.093928
0.0975805
0.0988405
0.0975966
0.093776
0.0873636
0.0784716
0.0671373
0.185119
0.176809
0.16607
0.154537
0.143101
0.131543
0.119697
0.107507
0.0949794
0.0821454
0.0690568
0.0557917
0.0424534
0.0291821
0.0161596
0.00360917
-0.00820887
-0.0189915
-0.0284103
-0.036137
-0.0418687
-0.0453539
-0.0464181
-0.0449884
-0.0411113
-0.0349556
-0.0268002
-0.0170082
-0.00599506
0.00581294
0.0180037
0.0301948
0.0420408
0.0532294
0.0634753
0.0725154
0.0801093
0.0860417
0.0901253
0.0922025
0.0921478
0.0898691
0.0853074
0.0784548
0.0694183
0.0582278
0.192154
0.183366
0.171965
0.159938
0.148285
0.136798
0.125321
0.113798
0.1022
0.0905049
0.078715
0.0668756
0.0550706
0.0434208
0.0320794
0.0212238
0.0110553
0.001809
-0.0062545
-0.0128668
-0.0177758
-0.0207729
-0.0217188
-0.020564
-0.0173618
-0.012268
-0.00552551
0.00255699
0.011627
0.021322
0.0312907
0.0412045
0.0507635
0.0596951
0.0677489
0.0746948
0.0803239
0.0844511
0.0869174
0.0875903
0.0863648
0.0831647
0.0779418
0.0706925
0.0615165
0.0504334
0.199327
0.190185
0.178291
0.165901
0.154107
0.142719
0.131597
0.120673
0.109886
0.0991705
0.0884981
0.0778943
0.0674281
0.0571996
0.0473277
0.0379433
0.0291937
0.0212549
0.0143285
0.00863042
0.00436933
0.00171844
0.00079042
0.00161938
0.00415058
0.00824268
0.0136837
0.0202106
0.0275229
0.0353119
0.043279
0.0511431
0.0586451
0.0655483
0.0716346
0.0767042
0.0805774
0.0830965
0.084127
0.0835572
0.0812993
0.0772903
0.071491
0.0639017
0.0546149
0.0436413
0.206254
0.196891
0.184675
0.172067
0.16023
0.148994
0.138222
0.127833
0.117742
0.107862
0.0981545
0.0886292
0.079336
0.070347
0.0617422
0.0536101
0.0460553
0.0392084
0.0332245
0.0282747
0.0245282
0.022125
0.0211534
0.0216344
0.0235137
0.026665
0.030905
0.0360099
0.041726
0.0477912
0.053953
0.059972
0.0656264
0.0707118
0.0750402
0.0784397
0.0807569
0.0818578
0.0816284
0.0799749
0.0768243
0.0721251
0.0658459
0.05799
0.0486435
0.0378101
0.212631
0.203173
0.19081
0.178139
0.166368
0.15534
0.14491
0.13499
0.125488
0.116324
0.107455
0.0988762
0.0906096
0.0826902
0.075159
0.0680699
0.0614977
0.0555424
0.0503257
0.0459825
0.0426458
0.0404223
0.0393744
0.0395086
0.0407706
0.0430483
0.0461852
0.0499937
0.0542627
0.0587729
0.0633122
0.0676788
0.0716841
0.0751536
0.0779264
0.0798554
0.0808098
0.0806756
0.0793568
0.0767749
0.0728697
0.0676
0.060941
0.0528979
0.0435511
0.0329001
0.218224
0.208793
0.196455
0.183875
0.172276
0.1615
0.151398
0.141886
0.132887
0.12434
0.116205
0.108455
0.101078
0.0940688
0.0874336
0.0811999
0.0754228
0.0701834
0.0655805
0.0617201
0.0587021
0.056601
0.0554528
0.0552489
0.0559343
0.0574105
0.0595456
0.0621851
0.0651563
0.0682789
0.0713762
0.0742799
0.0768314
0.0788827
0.0802965
0.0809473
0.0807235
0.0795286
0.0772817
0.073918
0.0693882
0.0636595
0.0567125
0.0485535
0.0392582
0.0288241
0.22287
0.21358
0.201425
0.189075
0.177735
0.167246
0.157462
0.148319
0.139764
0.13176
0.124265
0.117231
0.11061
0.104362
0.0984661
0.0929299
0.0877948
0.0831282
0.0790107
0.075524
0.0727386
0.0707005
0.0694232
0.0688859
0.0690338
0.0697811
0.0710182
0.0726191
0.0744448
0.0763484
0.0781844
0.0798135
0.0811031
0.0819279
0.082171
0.0817254
0.0804962
0.078402
0.0753755
0.0713631
0.0663252
0.0602356
0.0530789
0.044862
0.0356562
0.0254574
0.22647
0.217418
0.20558
0.193573
0.182563
0.172393
0.162937
0.154151
0.146012
0.138495
0.131554
0.125122
0.119126
0.113501
0.108208