/*--------------------------------*- C++ -*----------------------------------*\
  =========                 |
  \\      /  F ield         | OpenFOAM: The Open Source CFD Toolbox
   \\    /   O peration     | Website:  https://openfoam.org
    \\  /    A nd           | Version:  7
     \\/     M anipulation  |
\*---------------------------------------------------------------------------*/
FoamFile
{
    version     2.0;
    format      ascii;
    class       surfaceScalarField;
    location    "0.2";
    object      phi;
}
// * * * * * * * * * * * * * * * * * * * * * * * * * * * * * * * * * * * * * //

dimensions      [0 3 -1 0 0 0 0];

internalField   nonuniform List<scalar> 
17936
(
-8.39475e-07
8.39475e-07
2.345e-07
-1.07398e-06
2.0501e-06
-1.8156e-06
4.05428e-06
-2.00418e-06
6.04682e-06
-1.99254e-06
7.97007e-06
-1.92325e-06
9.81885e-06
-1.84878e-06
1.16028e-05
-1.78398e-06
1.33352e-05
-1.73239e-06
1.50294e-05
-1.69414e-06
1.66974e-05
-1.66807e-06
1.83502e-05
-1.65273e-06
1.9997e-05
-1.64679e-06
2.16461e-05
-1.6491e-06
2.33047e-05
-1.65862e-06
2.49792e-05
-1.67447e-06
2.6675e-05
-1.69587e-06
2.83971e-05
-1.72212e-06
3.01497e-05
-1.75251e-06
3.19359e-05
-1.78629e-06
3.37585e-05
-1.82255e-06
3.56187e-05
-1.86024e-06
3.75168e-05
-1.89804e-06
3.94511e-05
-1.93433e-06
4.14181e-05
-1.96703e-06
4.34116e-05
-1.99348e-06
4.54219e-05
-2.0103e-06
4.74351e-05
-2.01315e-06
4.94317e-05
-1.99667e-06
5.13858e-05
-1.9541e-06
5.32627e-05
-1.87684e-06
5.50165e-05
-1.75377e-06
5.65862e-05
-1.56971e-06
5.78903e-05
-1.30414e-06
5.88094e-05
-9.19072e-07
5.91467e-05
-3.37312e-07
5.85072e-05
6.39507e-07
5.62827e-05
2.22444e-06
5.17781e-05
4.50465e-06
4.41868e-05
7.59131e-06
3.30827e-05
1.11041e-05
1.94272e-05
1.36555e-05
5.77111e-06
1.36561e-05
-4.94477e-06
1.07159e-05
-9.89645e-06
4.95168e-06
-9.89645e-06
1.85966e-07
6.53509e-07
1.46536e-06
-2.35337e-06
3.2026e-06
-3.55284e-06
5.06986e-06
-3.87144e-06
6.94429e-06
-3.86697e-06
8.78011e-06
-3.75907e-06
1.05656e-05
-3.63431e-06
1.23041e-05
-3.52248e-06
1.40043e-05
-3.43256e-06
1.56763e-05
-3.36612e-06
1.73301e-05
-3.32192e-06
1.89753e-05
-3.29785e-06
2.06202e-05
-3.29173e-06
2.22726e-05
-3.30152e-06
2.39393e-05
-3.32534e-06
2.56264e-05
-3.3615e-06
2.7339e-05
-3.40846e-06
2.90816e-05
-3.46477e-06
3.0858e-05
-3.52892e-06
3.2671e-05
-3.59927e-06
3.45224e-05
-3.67392e-06
3.64127e-05
-3.75059e-06
3.83412e-05
-3.82651e-06
4.03051e-05
-3.89827e-06
4.22997e-05
-3.96159e-06
4.43173e-05
-4.01106e-06
4.63468e-05
-4.03986e-06
4.83731e-05
-4.03944e-06
5.03756e-05
-3.99914e-06
5.23271e-05
-3.90561e-06
5.41921e-05
-3.74189e-06
5.59245e-05
-3.48611e-06
5.74639e-05
-3.10915e-06
5.87315e-05
-2.57175e-06
5.96292e-05
-1.81674e-06
6.00635e-05
-7.71625e-07
5.99942e-05
7.08803e-07
5.93735e-05
2.84512e-06
5.79111e-05
5.96712e-06
5.50002e-05
1.05022e-05
4.94641e-05
1.66402e-05
3.99209e-05
2.31986e-05
2.65965e-05
2.69805e-05
1.25785e-05
2.47339e-05
2.39659e-06
1.51336e-05
-7.49986e-06
8.76475e-07
-2.22967e-07
2.29666e-06
-3.77356e-06
3.97411e-06
-5.23029e-06
5.74191e-06
-5.63924e-06
7.51983e-06
-5.64489e-06
9.27427e-06
-5.51351e-06
1.09941e-05
-5.35416e-06
1.268e-05
-5.20831e-06
1.43376e-05
-5.09025e-06
1.59751e-05
-5.00358e-06
1.76007e-05
-4.94754e-06
1.92227e-05
-4.91984e-06
2.08487e-05
-4.91776e-06
2.24858e-05
-4.93858e-06
2.41402e-05
-4.9797e-06
2.58173e-05
-5.03868e-06
2.75221e-05
-5.11326e-06
2.92585e-05
-5.20117e-06
3.10297e-05
-5.30008e-06
3.28378e-05
-5.40741e-06
3.46841e-05
-5.52017e-06
3.65683e-05
-5.63481e-06
3.84888e-05
-5.74705e-06
4.04422e-05
-5.85161e-06
4.24226e-05
-5.94197e-06
4.44215e-05
-6.00998e-06
4.6427e-05
-6.04542e-06
4.84232e-05
-6.03561e-06
5.03888e-05
-5.96474e-06
5.22963e-05
-5.81308e-06
5.411e-05
-5.55565e-06
5.57843e-05
-5.1604e-06
5.72605e-05
-4.58532e-06
5.84635e-05
-3.77474e-06
5.92999e-05
-2.65313e-06
5.96488e-05
-1.12057e-06
5.93927e-05
9.64962e-07
5.84239e-05
3.81387e-06
5.66625e-05
7.7285e-06
5.4064e-05
1.31007e-05
5.04407e-05
2.02635e-05
4.48939e-05
2.87454e-05
3.60085e-05
3.58659e-05
2.37258e-05
3.70165e-05
1.06095e-05
2.82499e-05
3.10968e-06
1.28755e-06
-1.51052e-06
2.87564e-06
-5.36165e-06
4.55519e-06
-6.90985e-06
6.26846e-06
-7.3525e-06
7.98025e-06
-7.35668e-06
9.67279e-06
-7.20604e-06
1.13394e-05
-7.02079e-06
1.29807e-05
-6.84963e-06
1.46014e-05
-6.71095e-06
1.62081e-05
-6.61022e-06
1.78079e-05
-6.5474e-06
1.94083e-05
-6.52021e-06
2.10161e-05
-6.52557e-06
2.26377e-05
-6.56021e-06
2.42789e-05
-6.6209e-06
2.59448e-05
-6.70453e-06
2.76396e-05
-6.80806e-06
2.93669e-05
-6.92847e-06
3.11294e-05
-7.06255e-06
3.29287e-05
-7.20673e-06
3.47654e-05
-7.35692e-06
3.66389e-05
-7.50824e-06
3.85467e-05
-7.65486e-06
4.04847e-05
-7.78965e-06
4.24465e-05
-7.9038e-06
4.4423e-05
-7.98643e-06
4.64016e-05
-8.02402e-06
4.83658e-05
-7.99985e-06
5.02943e-05
-7.89316e-06
5.21593e-05
-7.6781e-06
5.39257e-05
-7.32206e-06
5.55487e-05
-6.78344e-06
5.69717e-05
-6.00832e-06
5.81231e-05
-4.92612e-06
5.89134e-05
-3.44346e-06
5.92306e-05
-1.43774e-06
5.89441e-05
1.25152e-06
5.79176e-05
4.84035e-06
5.60365e-05
9.60955e-06
5.32584e-05
1.58788e-05
4.96326e-05
2.38894e-05
4.49902e-05
3.33877e-05
3.83014e-05
4.25548e-05
2.81436e-05
4.71743e-05
1.4785e-05
4.16086e-05
1.78946e-05
1.51852e-06
-3.02903e-06
3.26522e-06
-7.10835e-06
4.98775e-06
-8.63238e-06
6.68548e-06
-9.05023e-06
8.36003e-06
-9.03124e-06
1.00106e-05
-8.85663e-06
1.16375e-05
-8.64768e-06
1.32435e-05
-8.45566e-06
1.48337e-05
-8.3011e-06
1.64142e-05
-8.19069e-06
1.79916e-05
-8.12489e-06
1.95728e-05
-8.10141e-06
2.11641e-05
-8.11688e-06
2.27715e-05
-8.16754e-06
2.44002e-05
-8.24957e-06
2.60548e-05
-8.3592e-06
2.77394e-05
-8.49267e-06
2.94571e-05
-8.64614e-06
3.12101e-05
-8.81552e-06
3.29996e-05
-8.99624e-06
3.48257e-05
-9.18307e-06
3.66873e-05
-9.36979e-06
3.85814e-05
-9.549e-06
4.05034e-05
-9.71166e-06
4.24464e-05
-9.84674e-06
4.44006e-05
-9.94067e-06
4.63533e-05
-9.97669e-06
4.82876e-05
-9.93418e-06
5.01821e-05
-9.78767e-06
5.20095e-05
-9.50548e-06
5.37353e-05
-9.04789e-06
5.53163e-05
-8.36444e-06
5.66983e-05
-7.39028e-06
5.78135e-05
-6.04136e-06
5.85781e-05
-4.20802e-06
5.88884e-05
-1.74799e-06
5.86198e-05
1.52007e-06
5.76345e-05
5.82569e-06
5.57976e-05
1.14464e-05
5.30109e-05
1.86655e-05
4.92493e-05
2.7651e-05
4.44746e-05
3.81625e-05
3.81752e-05
4.88542e-05
2.90533e-05
5.62962e-05
1.61916e-05
5.44703e-05
3.40863e-05
1.64587e-06
-4.6749e-06
3.51936e-06
-8.98184e-06
5.30128e-06
-1.04143e-05
7.00978e-06
-1.07587e-05
8.67021e-06
-1.06917e-05
1.02964e-05
-1.04828e-05
1.18962e-05
-1.02475e-05
1.3476e-05
-1.00354e-05
1.50421e-05
-9.86722e-06
1.66012e-05
-9.74974e-06
1.81598e-05
-9.6835e-06
1.97244e-05
-9.66602e-06
2.13011e-05
-9.69357e-06
2.28954e-05
-9.7619e-06
2.45125e-05
-9.86659e-06
2.61565e-05
-1.00032e-05
2.78311e-05
-1.01673e-05
2.95391e-05
-1.03541e-05
3.12824e-05
-1.05588e-05
3.30618e-05
-1.07757e-05
3.4877e-05
-1.09983e-05
3.67265e-05
-1.12192e-05
3.86068e-05
-1.14294e-05
4.0513e-05
-1.16178e-05
4.24376e-05
-1.17714e-05
4.43707e-05
-1.18738e-05
4.62992e-05
-1.19051e-05
4.82062e-05
-1.18412e-05
5.00704e-05
-1.16519e-05
5.18652e-05
-1.13002e-05
5.35571e-05
-1.07398e-05
5.51048e-05
-9.91217e-06
5.64571e-05
-8.74258e-06
5.75507e-05
-7.13494e-06
5.83077e-05
-4.965e-06
5.86326e-05
-2.0729e-06
5.84099e-05
1.74282e-06
5.75056e-05
6.72998e-06
5.57748e-05
1.31771e-05
5.30768e-05
2.13635e-05
4.92922e-05
3.14356e-05
4.42983e-05
4.31564e-05
3.77623e-05
5.53902e-05
2.88096e-05
6.52489e-05
1.62831e-05
6.69968e-05
5.03693e-05
1.71438e-06
-6.38928e-06
3.6818e-06
-1.09493e-05
5.52417e-06
-1.22567e-05
7.25767e-06
-1.24922e-05
8.91992e-06
-1.23539e-05
1.05354e-05
-1.20983e-05
1.21188e-05
-1.18309e-05
1.36804e-05
-1.1597e-05
1.52285e-05
-1.14153e-05
1.67706e-05
-1.12919e-05
1.83137e-05
-1.12266e-05
1.98643e-05
-1.12166e-05
2.14282e-05
-1.12575e-05
2.3011e-05
-1.13446e-05
2.46173e-05
-1.14729e-05
2.62513e-05
-1.16372e-05
2.79163e-05
-1.18323e-05
2.96148e-05
-1.20527e-05
3.13484e-05
-1.22924e-05
3.31177e-05
-1.2545e-05
3.49221e-05
-1.28027e-05
3.67595e-05
-1.30566e-05
3.86264e-05
-1.32962e-05
4.05172e-05
-1.35086e-05
4.24243e-05
-1.36785e-05
4.43375e-05
-1.3787e-05
4.62437e-05
-1.38113e-05
4.8126e-05
-1.37235e-05
4.99635e-05
-1.34895e-05
5.17304e-05
-1.30671e-05
5.33947e-05
-1.24041e-05
5.49172e-05
-1.14347e-05
5.62502e-05
-1.00755e-05
5.73351e-05
-8.21986e-06
5.81007e-05
-5.73056e-06
5.84597e-05
-2.43194e-06
5.83057e-05
1.89682e-06
5.75103e-05
7.52539e-06
5.59219e-05
1.47655e-05
5.33668e-05
2.39186e-05
4.96492e-05
3.51533e-05
4.45383e-05
4.82672e-05
3.76966e-05
6.22319e-05
2.85236e-05
7.44219e-05
1.61137e-05
7.94068e-05
6.6483e-05
1.74924e-06
-8.13852e-06
3.78446e-06
-1.29845e-05
5.68099e-06
-1.41532e-05
7.4448e-06
-1.4256e-05
9.11819e-06
-1.40273e-05
1.07324e-05
-1.37125e-05
1.23076e-05
-1.34061e-05
1.38576e-05
-1.31471e-05
1.53929e-05
-1.29507e-05
1.69222e-05
-1.28211e-05
1.84529e-05
-1.27573e-05
1.99917e-05
-1.27554e-05
2.15447e-05
-1.28105e-05
2.31172e-05
-1.29171e-05
2.47138e-05
-1.30695e-05
2.63384e-05
-1.32618e-05
2.79943e-05
-1.34881e-05
2.96836e-05
-1.3742e-05
3.14079e-05
-1.40167e-05
3.31672e-05
-1.43044e-05
3.49609e-05
-1.45963e-05
3.67866e-05
-1.48823e-05
3.86403e-05
-1.515e-05
4.05164e-05
-1.53848e-05
4.2407e-05
-1.55691e-05
4.43018e-05
-1.56818e-05
4.61875e-05
-1.5697e-05
4.80477e-05
-1.55837e-05
4.9862e-05
-1.53037e-05
5.16054e-05
-1.48105e-05
5.32477e-05
-1.40464e-05
5.47523e-05
-1.29393e-05
5.60751e-05
-1.13983e-05
5.71628e-05
-9.30757e-06
5.79511e-05
-6.51884e-06
5.83614e-05
-2.84225e-06
5.82964e-05
1.96176e-06
5.76342e-05
8.18767e-06
5.62187e-05
1.61809e-05
5.38495e-05
2.62878e-05
5.02676e-05
3.87352e-05
4.51452e-05
5.33896e-05
3.80838e-05
6.92933e-05
2.85961e-05
8.39095e-05
1.6069e-05
9.19339e-05
8.2552e-05
1.76579e-06
-9.90431e-06
3.84949e-06
-1.50682e-05
5.79106e-06
-1.60948e-05
7.58473e-06
-1.60497e-05
9.27339e-06
-1.5716e-05
1.08921e-05
-1.53311e-05
1.24648e-05
-1.49788e-05
1.40083e-05
-1.46906e-05
1.55351e-05
-1.44774e-05
1.70549e-05
-1.43409e-05
1.85759e-05
-1.42783e-05
2.01052e-05
-1.42847e-05
2.1649e-05
-1.43542e-05
2.32125e-05
-1.44806e-05
2.48003e-05
-1.46573e-05
2.64163e-05
-1.48779e-05
2.80636e-05
-1.51354e-05
2.97441e-05
-1.54226e-05
3.14593e-05
-1.57318e-05
3.3209e-05
-1.60541e-05
3.49923e-05
-1.63796e-05
3.68066e-05
-1.66966e-05
3.86477e-05
-1.69911e-05
4.05099e-05
-1.72469e-05
4.2385e-05
-1.74442e-05
4.42627e-05
-1.75595e-05
4.61299e-05
-1.75642e-05
4.79705e-05
-1.74242e-05
4.97647e-05
-1.70979e-05
5.14887e-05
-1.65346e-05
5.31142e-05
-1.56719e-05
5.46072e-05
-1.44324e-05
5.59277e-05
-1.27188e-05
5.7028e-05
-1.04078e-05
5.78509e-05
-7.34178e-06
5.8327e-05
-3.31833e-06
5.83686e-05
1.92018e-06
5.78608e-05
8.69543e-06
5.6646e-05
1.73957e-05
5.45019e-05
2.84319e-05
5.1115e-05
4.21221e-05
4.60693e-05
5.84353e-05
3.88901e-05
7.64725e-05
2.91107e-05
9.36889e-05
1.63074e-05
0.000104737
9.88594e-05
1.77366e-06
-1.1678e-05
3.89152e-06
-1.7186e-05
5.86831e-06
-1.80715e-05
7.68806e-06
-1.78695e-05
9.3925e-06
-1.74204e-05
1.10184e-05
-1.6957e-05
1.25922e-05
-1.65526e-05
1.41329e-05
-1.62313e-05
1.56544e-05
-1.59989e-05
1.71675e-05
-1.58541e-05
1.86813e-05
-1.57921e-05
2.02029e-05
-1.58064e-05
2.17389e-05
-1.58902e-05
2.32946e-05
-1.60363e-05
2.48747e-05
-1.62374e-05
2.64828e-05
-1.6486e-05
2.8122e-05
-1.67745e-05
2.97943e-05
-1.70949e-05
3.15007e-05
-1.74382e-05
3.32411e-05
-1.77946e-05
3.50144e-05
-1.81529e-05
3.68178e-05
-1.84999e-05
3.8647e-05
-1.88204e-05
4.0496e-05
-1.90959e-05
4.23567e-05
-1.93049e-05
4.42188e-05
-1.94215e-05
4.60693e-05
-1.94148e-05
4.78925e-05
-1.92475e-05
4.96696e-05
-1.88749e-05
5.13779e-05
-1.82429e-05
5.2991e-05
-1.7285e-05
5.4478e-05
-1.59194e-05
5.58029e-05
-1.40436e-05
5.69236e-05
-1.15285e-05
5.77907e-05
-8.20888e-06
5.83439e-05
-3.87155e-06
5.85058e-05
1.75827e-06
5.817e-05
9.03126e-06
5.71794e-05
1.83862e-05
5.52945e-05
3.03168e-05
5.21539e-05
4.52628e-05
4.72574e-05
6.33318e-05
4.0048e-05
8.36819e-05
3.00301e-05
0.000103707
1.68441e-05
0.000117923
0.000115703
1.77848e-06
-1.34565e-05
3.91938e-06
-1.93269e-05
5.92188e-06
-2.0074e-05
7.76231e-06
-1.97099e-05
9.48075e-06
-1.91389e-05
1.11145e-05
-1.85908e-05
1.26913e-05
-1.81294e-05
1.42314e-05
-1.77714e-05
1.575e-05
-1.75175e-05
1.72587e-05
-1.73629e-05
1.87671e-05
-1.73004e-05
2.02827e-05
-1.73221e-05
2.18123e-05
-1.74198e-05
2.33614e-05
-1.75853e-05
2.49345e-05
-1.78105e-05
2.65354e-05
-1.8087e-05
2.81672e-05
-1.84063e-05
2.98316e-05
-1.87593e-05
3.15297e-05
-1.91363e-05
3.32614e-05
-1.95262e-05
3.50251e-05
-1.99166e-05
3.68181e-05
-2.02929e-05
3.8636e-05
-2.06383e-05
4.04727e-05
-2.09326e-05
4.232e-05
-2.11523e-05
4.41678e-05
-2.12693e-05
4.60034e-05
-2.12503e-05
4.78115e-05
-2.10556e-05
4.95741e-05
-2.06375e-05
5.12699e-05
-1.99388e-05
5.28745e-05
-1.88897e-05
5.436e-05
-1.74048e-05
5.56943e-05
-1.5378e-05
5.68415e-05
-1.26757e-05
5.77596e-05
-9.12693e-06
5.83977e-05
-4.50975e-06
5.86892e-05
1.46682e-06
5.85369e-05
9.18359e-06
5.77868e-05
1.91363e-05
5.61861e-05
3.19175e-05
5.33305e-05
4.81184e-05
4.86387e-05
6.80235e-05
4.14701e-05
9.08505e-05
3.12764e-05
0.0001139
1.7658e-05
0.000131542
0.000133361
1.78284e-06
-1.52393e-05
3.93767e-06
-2.14818e-05
5.95708e-06
-2.20935e-05
7.81221e-06
-2.1565e-05
9.54164e-06
-2.08683e-05
1.11825e-05
-2.02316e-05
1.27628e-05
-1.97098e-05
1.43038e-05
-1.93123e-05
1.58211e-05
-1.90348e-05
1.7327e-05
-1.88688e-05
1.88315e-05
-1.88048e-05
2.03425e-05
-1.88331e-05
2.18668e-05
-1.89442e-05
2.34101e-05
-1.91287e-05
2.49772e-05
-1.93775e-05
2.65716e-05
-1.96815e-05
2.81965e-05
-2.00311e-05
2.98536e-05
-2.04164e-05
3.15439e-05
-2.08266e-05
3.32671e-05
-2.12495e-05
3.50217e-05
-2.16713e-05
3.68049e-05
-2.20761e-05
3.86122e-05
-2.24455e-05
4.04374e-05
-2.27578e-05
4.22725e-05
-2.29874e-05
4.41073e-05
-2.31041e-05
4.59295e-05
-2.30726e-05
4.77245e-05
-2.28505e-05
4.94749e-05
-2.2388e-05
5.1161e-05
-2.16248e-05
5.27603e-05
-2.04889e-05
5.42476e-05
-1.88921e-05
5.55952e-05
-1.67256e-05
5.67727e-05
-1.38531e-05
5.77456e-05
-1.00998e-05
5.84725e-05
-5.23667e-06
5.88971e-05
1.04219e-06
5.8932e-05
9.14868e-06
5.84275e-05
1.96409e-05
5.71205e-05
3.32244e-05
5.45688e-05
5.06701e-05
5.01141e-05
7.24782e-05
4.30412e-05
9.79235e-05
3.27484e-05
0.000124193
1.87179e-05
0.000145572
0.000152079
1.78728e-06
-1.70266e-05
3.94824e-06
-2.36427e-05
5.97661e-06
-2.41218e-05
7.84045e-06
-2.34289e-05
9.5773e-06
-2.26051e-05
1.12236e-05
-2.18779e-05
1.28073e-05
-2.12936e-05
1.43496e-05
-2.08546e-05
1.58666e-05
-2.05518e-05
1.73709e-05
-2.03731e-05
1.88726e-05
-2.03065e-05
2.038e-05
-2.03405e-05
2.19e-05
-2.04642e-05
2.34385e-05
-2.06671e-05
2.50001e-05
-2.09391e-05
2.65887e-05
-2.127e-05
2.82071e-05
-2.16496e-05
2.98574e-05
-2.20667e-05
3.15403e-05
-2.25095e-05
3.32555e-05
-2.29647e-05
3.50016e-05
-2.34173e-05
3.67755e-05
-2.38501e-05
3.85728e-05
-2.42429e-05
4.03874e-05
-2.45723e-05
4.22112e-05
-2.48111e-05
4.40342e-05
-2.49272e-05
4.58446e-05
-2.4883e-05
4.76282e-05
-2.46341e-05
4.93685e-05
-2.41282e-05
5.1047e-05
-2.33034e-05
5.26432e-05
-2.20851e-05
5.41348e-05
-2.03837e-05
5.54979e-05
-1.80887e-05
5.67074e-05
-1.50626e-05
5.77359e-05
-1.11283e-05
5.85509e-05
-6.05164e-06
5.91058e-05
4.87264e-07
5.93219e-05
8.93254e-06
5.90527e-05
1.99101e-05
5.80256e-05
3.42516e-05
5.57638e-05
5.29319e-05
5.15427e-05
7.66993e-05
4.46008e-05
0.000104865
3.43149e-05
0.000134479
1.99905e-05
0.000159897
0.00017207
1.79154e-06
-1.88181e-05
3.95153e-06
-2.58027e-05
5.98153e-06
-2.61518e-05
7.84836e-06
-2.52957e-05
9.58884e-06
-2.43456e-05
1.12385e-05
-2.35275e-05
1.28248e-05
-2.28798e-05
1.43684e-05
-2.23983e-05
1.58855e-05
-2.20689e-05
1.73888e-05
-2.18764e-05
1.88885e-05
-2.18063e-05
2.03931e-05
-2.18451e-05
2.19096e-05
-2.19807e-05
2.34439e-05
-2.22013e-05
2.50006e-05
-2.24959e-05
2.65839e-05
-2.28533e-05
2.81964e-05
-2.32621e-05
2.98402e-05
-2.37105e-05
3.15161e-05
-2.41854e-05
3.32238e-05
-2.46724e-05
3.49618e-05
-2.51553e-05
3.67269e-05
-2.56153e-05
3.85149e-05
-2.60308e-05
4.03195e-05
-2.6377e-05
4.2133e-05
-2.66245e-05
4.39454e-05
-2.67397e-05
4.57452e-05
-2.66828e-05
4.75188e-05
-2.64076e-05
4.92505e-05
-2.586e-05
5.09232e-05
-2.4976e-05
5.25179e-05
-2.36799e-05
5.4015e-05
-2.18808e-05
5.53942e-05
-1.94679e-05
5.66351e-05
-1.63035e-05
5.77168e-05
-1.221e-05
5.86143e-05
-6.94918e-06
5.92897e-05
-1.88043e-07
5.967e-05
8.55221e-06
5.96072e-05
1.99729e-05
5.88128e-05
3.50459e-05
5.67749e-05
5.49698e-05
5.27217e-05
8.07525e-05
4.59145e-05
0.000111673
3.57925e-05
0.000144601
2.14453e-05
0.000174244
0.000193515
1.79583e-06
-2.0614e-05
3.94726e-06
-2.79541e-05
5.97213e-06
-2.81767e-05
7.8365e-06
-2.71601e-05
9.57682e-06
-2.60859e-05
1.12276e-05
-2.51783e-05
1.2815e-05
-2.44673e-05
1.43595e-05
-2.39427e-05
1.58767e-05
-2.35861e-05
1.73793e-05
-2.3379e-05
1.88775e-05
-2.33045e-05
2.03798e-05
-2.33474e-05
2.18933e-05
-2.34941e-05
2.34238e-05
-2.37318e-05
2.49762e-05
-2.40483e-05
2.65544e-05
-2.44315e-05
2.81614e-05
-2.48691e-05
2.97992e-05
-2.53482e-05
3.14684e-05
-2.58546e-05
3.31689e-05
-2.63729e-05
3.48991e-05
-2.68854e-05
3.6656e-05
-2.73722e-05
3.84352e-05
-2.781e-05
4.02306e-05
-2.81723e-05
4.20344e-05
-2.84284e-05
4.38371e-05
-2.85424e-05
4.56274e-05
-2.84731e-05
4.73922e-05
-2.81723e-05
4.91165e-05
-2.75844e-05
5.07843e-05
-2.66438e-05
5.23784e-05
-2.5274e-05
5.38811e-05
-2.33835e-05
5.52754e-05
-2.08622e-05
5.6545e-05
-1.75731e-05
5.76741e-05
-1.33391e-05
5.86438e-05
-7.91896e-06
5.94224e-05
-9.66545e-07
5.99388e-05
8.03576e-06
6.00341e-05
1.98776e-05
5.93849e-05
3.56951e-05
5.74193e-05
5.69355e-05
5.33387e-05
8.48331e-05
4.66057e-05
0.000118406
3.69088e-05
0.000154298
2.30537e-05
0.000188099
0.000216569
1.79824e-06
-2.24122e-05
3.93529e-06
-3.00912e-05
5.94828e-06
-3.01897e-05
7.80509e-06
-2.90169e-05
9.54152e-06
-2.78224e-05
1.11908e-05
-2.68275e-05
1.27779e-05
-2.60544e-05
1.43223e-05
-2.54871e-05
1.58393e-05
-2.51031e-05
1.73411e-05
-2.48808e-05
1.88379e-05
-2.48013e-05
2.03381e-05
-2.48476e-05
2.18488e-05
-2.50048e-05
2.33758e-05
-2.52589e-05
2.49242e-05
-2.55967e-05
2.64977e-05
-2.60051e-05
2.80994e-05
-2.64708e-05
2.97312e-05
-2.698e-05
3.13941e-05
-2.75175e-05
3.30877e-05
-2.80665e-05
3.48104e-05
-2.86082e-05
3.65595e-05
-2.91212e-05
3.83303e-05
-2.95809e-05
4.01171e-05
-2.99591e-05
4.1912e-05
-3.02233e-05
4.37058e-05
-3.03362e-05
4.54874e-05
-3.02547e-05
4.72442e-05
-2.99291e-05
4.89619e-05
-2.93021e-05
5.06253e-05
-2.83073e-05
5.22186e-05
-2.68672e-05
5.3726e-05
-2.48909e-05
5.51329e-05
-2.22691e-05
5.64262e-05
-1.88664e-05
5.75938e-05
-1.45067e-05
5.86209e-05
-8.94597e-06
5.94784e-05
-1.82411e-06
6.00927e-05
7.42144e-06
6.02807e-05
1.96897e-05
5.96475e-05
3.63283e-05
5.74737e-05
5.91093e-05
5.28849e-05
8.94219e-05
4.60114e-05
0.000125279
3.71589e-05
0.000163151
2.47967e-05
0.000200461
0.000241365
-2.99881e-06
2.99881e-06
-5.59467e-06
2.59584e-06
-7.33586e-06
1.74121e-06
-8.13451e-06
7.98637e-07
-8.16914e-06
3.46187e-08
-7.71077e-06
-4.58356e-07
-6.9561e-06
-7.5468e-07
-6.05113e-06
-9.04971e-07
-5.09652e-06
-9.54603e-07
-4.15837e-06
-9.38179e-07
-3.27506e-06
-8.83292e-07
-2.46905e-06
-8.06036e-07
-1.75113e-06
-7.17911e-07
-1.1248e-06
-6.26322e-07
-5.8827e-07
-5.36543e-07
-1.35548e-07
-4.52697e-07
2.4053e-07
-3.76103e-07
5.4736e-07
-3.06813e-07
7.91817e-07
-2.44469e-07
9.80124e-07
-1.88318e-07
1.11775e-06
-1.37626e-07
1.20976e-06
-9.20229e-08
1.26076e-06
-5.09943e-08
1.27427e-06
-1.35317e-08
1.25562e-06
1.8653e-08
1.20709e-06
4.85393e-08
1.13143e-06
7.56647e-08
1.03134e-06
1.00094e-07
9.09458e-07
1.21885e-07
7.68408e-07
1.41069e-07
6.10724e-07
1.57677e-07
4.39337e-07
1.71397e-07
2.58077e-07
1.81257e-07
7.34584e-08
1.84621e-07
-1.01253e-07
1.74706e-07
-2.40756e-07
1.39505e-07
-2.64187e-07
2.34427e-08
-2.64213e-07
-3.32952e-06
6.32836e-06
-5.86749e-06
5.13376e-06
-7.47282e-06
3.34656e-06
-8.1724e-06
1.49821e-06
-8.20444e-06
6.66394e-08
-7.73832e-06
-9.24462e-07
-6.97951e-06
-1.51349e-06
-6.06781e-06
-1.8167e-06
-5.10368e-06
-1.91871e-06
-4.15253e-06
-1.88938e-06
-3.25486e-06
-1.78093e-06
-2.43432e-06
-1.62659e-06
-1.70189e-06
-1.45036e-06
-1.06099e-06
-1.26719e-06
-5.09988e-07
-1.08758e-06
-4.41937e-08
-9.1846e-07
3.42586e-07
-7.62921e-07
6.57397e-07
-6.2163e-07
9.07138e-07
-4.94211e-07
1.09834e-06
-3.79534e-07
1.23707e-06
-2.76345e-07
1.32873e-06
-1.83694e-07
1.3785e-06
-1.00751e-07
1.39148e-06
-2.65008e-08
1.3695e-06
4.06469e-08
1.31767e-06
1.00385e-07
1.23889e-06
1.54454e-07
1.13611e-06
2.02902e-07
1.01215e-06
2.45815e-07
8.69928e-07
2.833e-07
7.12328e-07
3.15272e-07
5.4276e-07
3.40983e-07
3.6563e-07
3.58374e-07
1.8784e-07
3.62418e-07
2.13044e-08
3.41249e-07
-1.09967e-07
2.70747e-07
-1.55362e-07
6.8869e-08
-4.19597e-07
-3.32116e-06
9.64954e-06
-5.84403e-06
7.6566e-06
-7.44684e-06
4.94937e-06
-8.15859e-06
2.20997e-06
-8.17325e-06
8.12722e-08
-7.71201e-06
-1.38569e-06
-6.95539e-06
-2.2701e-06
-6.04893e-06
-2.72319e-06
-5.09051e-06
-2.8771e-06
-4.14534e-06
-2.8346e-06
-3.25314e-06
-2.67311e-06
-2.43682e-06
-2.44292e-06
-1.70741e-06
-2.17979e-06
-1.06817e-06
-1.90642e-06
-5.17661e-07
-1.63814e-06
-5.1643e-08
-1.38447e-06
3.35551e-07
-1.15013e-06
6.50614e-07
-9.36686e-07
9.00412e-07
-7.43987e-07
1.09159e-06
-5.7071e-07
1.2304e-06
-4.15118e-07
1.32236e-06
-2.75647e-07
1.37254e-06
-1.50914e-07
1.38556e-06
-3.9505e-08
1.36582e-06
6.03907e-08
1.31663e-06
1.49581e-07
1.24157e-06
2.29498e-07
1.14384e-06
3.0065e-07
1.02639e-06
3.63251e-07
8.92315e-07
4.1739e-07
7.44777e-07
4.62798e-07
5.87542e-07
4.98231e-07
4.25387e-07
5.20523e-07
2.6529e-07
5.2252e-07
1.18e-07
4.88552e-07
2.04443e-09
3.86679e-07
-5.14051e-08
1.22341e-07
-4.71022e-07
-3.39901e-06
1.30486e-05
-5.9659e-06
1.02235e-05
-7.56068e-06
6.54415e-06
-8.2406e-06
2.8899e-06
-8.22066e-06
6.13068e-08
-7.72985e-06
-1.8765e-06
-6.95634e-06
-3.0436e-06
-6.04235e-06
-3.63722e-06
-5.08375e-06
-3.83567e-06
-4.14278e-06
-3.7756e-06
-3.25705e-06
-3.55885e-06
-2.44781e-06
-3.25217e-06
-1.72517e-06
-2.90245e-06
-1.09191e-06
-2.53968e-06
-5.46448e-07
-2.18362e-06
-8.45492e-08
-1.84635e-06
2.99393e-07
-1.53407e-06
6.11939e-07
-1.24924e-06
8.59897e-07
-9.91938e-07
1.04992e-06
-7.60756e-07
1.18831e-06
-5.53502e-07
1.28068e-06
-3.68029e-07
1.33217e-06
-2.02393e-07
1.3474e-06
-5.47215e-08
1.33075e-06
7.70492e-08
1.28589e-06
1.94459e-07
1.21637e-06
2.99014e-07
1.12549e-06
3.91544e-07
1.01633e-06
4.72403e-07
8.92085e-07
5.41652e-07
7.56096e-07
5.98782e-07
6.12328e-07
6.4201e-07
4.65675e-07
6.67166e-07
3.22785e-07
6.65405e-07
1.92882e-07
6.18467e-07
8.92373e-08
4.903e-07
2.3867e-08
1.87733e-07
-4.4717e-07
-3.5765e-06
1.66251e-05
-6.22111e-06
1.28681e-05
-7.80603e-06
8.12906e-06
-8.42888e-06
3.51276e-06
-8.34362e-06
-2.39671e-08
-7.79557e-06
-2.42456e-06
-6.98193e-06
-3.85722e-06
-6.04405e-06
-4.57513e-06
-5.07458e-06
-4.80512e-06
-4.13168e-06
-4.71852e-06
-3.24954e-06
-4.441e-06
-2.44673e-06
-4.05499e-06
-1.73169e-06
-3.6175e-06
-1.10614e-06
-3.16522e-06
-5.67943e-07
-2.72185e-06
-1.12527e-07
-2.30177e-06
2.65931e-07
-1.91255e-06
5.74035e-07
-1.55737e-06
8.18594e-07
-1.23652e-06
1.00626e-06
-9.48445e-07
1.14333e-06
-6.90559e-07
1.23546e-06
-4.60161e-07
1.28781e-06
-2.5473e-07
1.305e-06
-7.19107e-08
1.29135e-06
9.06924e-08
1.2507e-06
2.35129e-07
1.18659e-06
3.63124e-07
1.10237e-06
4.75777e-07
1.00118e-06
5.73592e-07
8.86251e-07
6.56586e-07
7.61026e-07
7.23997e-07
6.29503e-07
7.73544e-07
4.96455e-07
8.00218e-07
3.67889e-07
7.93967e-07
2.51139e-07
7.35222e-07
1.54106e-07
5.87307e-07
7.61408e-08
2.65723e-07
-3.7104e-07
-3.85694e-06
2.0482e-05
-6.60477e-06
1.56159e-05
-8.17866e-06
9.70294e-06
-8.72077e-06
4.05488e-06
-8.53896e-06
-2.0579e-07
-7.90465e-06
-3.05888e-06
-7.02704e-06
-4.73482e-06
-6.04787e-06
-5.55432e-06
-5.05586e-06
-5.79713e-06
-4.10384e-06
-5.67056e-06
-3.22138e-06
-5.32345e-06
-2.42342e-06
-4.85294e-06
-1.71593e-06
-4.32503e-06
-1.09903e-06
-3.78211e-06
-5.69604e-07
-3.2513e-06
-1.22428e-07
-2.74894e-06
2.48715e-07
-2.28371e-06
5.50624e-07
-1.85928e-06
7.90184e-07
-1.47607e-06
9.74053e-07
-1.13232e-06
1.10853e-06
-8.25023e-07
1.19928e-06
-5.50917e-07
1.25145e-06
-3.06902e-07
1.26968e-06
-9.01302e-08
1.2582e-06
1.02153e-07
1.2209e-06
2.72429e-07
1.16131e-06
4.22712e-07
1.08277e-06
5.54339e-07
9.88412e-07
6.67942e-07
8.81495e-07
7.63511e-07
7.65427e-07
8.40053e-07
6.44108e-07
8.94869e-07
5.21999e-07
9.22327e-07
4.0427e-07
9.11696e-07
2.96297e-07
8.43207e-07
2.01632e-07
6.81948e-07
1.11969e-07
3.55404e-07
-2.59082e-07
-4.24543e-06
2.47275e-05
-7.11826e-06
1.84887e-05
-8.67853e-06
1.12632e-05
-9.11416e-06
4.49053e-06
-8.80293e-06
-5.17024e-07
-8.0521e-06
-3.80972e-06
-7.08641e-06
-5.7005e-06
-6.04867e-06
-6.59206e-06
-5.0226e-06
-6.82319e-06
-4.05439e-06
-6.63879e-06
-3.16771e-06
-6.21015e-06
-2.3729e-06
-5.64774e-06
-1.67271e-06
-5.02525e-06
-1.06515e-06
-4.38964e-06
-5.45746e-07
-3.77072e-06
-1.08367e-07
-3.18629e-06
2.53775e-07
-2.64584e-06
5.47783e-07
-2.15328e-06
7.80697e-07
-1.70897e-06
9.59219e-07
-1.31084e-06
1.08965e-06
-9.55435e-07
1.17766e-06
-6.38924e-07
1.22838e-06
-3.5763e-07
1.24642e-06
-1.08166e-07
1.23596e-06
1.12619e-07
1.20083e-06
3.0757e-07
1.14453e-06
4.79008e-07
1.07035e-06
6.28522e-07
9.81403e-07
7.56885e-07
8.8087e-07
8.64056e-07
7.72062e-07
9.48855e-07
6.58655e-07
1.00827e-06
5.44667e-07
1.03631e-06
4.34337e-07
1.02203e-06
3.31245e-07
9.4632e-07
2.35694e-07
7.77478e-07
1.35452e-07
4.55655e-07
-1.23642e-07
-4.7497e-06
2.94772e-05
-7.76714e-06
2.15062e-05
-9.30998e-06
1.2806e-05
-9.60933e-06
4.78989e-06
-9.13242e-06
-9.93923e-07
-8.23298e-06
-4.70916e-06
-7.15489e-06
-6.77858e-06
-6.04183e-06
-7.70515e-06
-4.97096e-06
-7.89404e-06
-3.98017e-06
-7.6296e-06
-3.08583e-06
-7.10449e-06
-2.29276e-06
-6.44079e-06
-1.59977e-06
-5.71825e-06
-1.00229e-06
-4.9871e-06
-4.94109e-07
-4.2789e-06
-6.80207e-08
-3.61238e-06
2.83492e-07
-2.99736e-06
5.67933e-07
-2.43774e-06
7.92563e-07
-1.9336e-06
9.64166e-07
-1.48246e-06
1.08906e-06
-1.08031e-06
1.17291e-06
-7.22764e-07
1.22082e-06
-4.05539e-07
1.23735e-06
-1.247e-07
1.22661e-06
1.23358e-07
1.19236e-06
3.41842e-07
1.13801e-06
5.33363e-07
1.06679e-06
6.99752e-07
9.81715e-07
8.41944e-07
8.85867e-07
9.59912e-07
7.82374e-07
1.05234e-06
6.74606e-07
1.11604e-06
5.66052e-07
1.14486e-06
4.60017e-07
1.12806e-06
3.58551e-07
1.0478e-06
2.5975e-07
8.76262e-07
1.4997e-07
5.6544e-07
2.63145e-08
-5.38836e-06
3.48655e-05
-8.56731e-06
2.46852e-05
-1.00852e-05
1.43239e-05
-1.02107e-05
4.9153e-06
-9.5256e-06
-1.67898e-06
-8.44254e-06
-5.79222e-06
-7.22724e-06
-7.99387e-06
-6.02289e-06
-8.90954e-06
-4.89763e-06
-9.01927e-06
-3.87891e-06
-8.64832e-06
-2.97433e-06
-8.00907e-06
-2.18214e-06
-7.23298e-06
-1.49659e-06
-6.40382e-06
-9.10084e-07
-5.57361e-06
-4.14417e-07
-4.77459e-06
-1.10565e-09
-4.02571e-06
3.38187e-07
-3.33667e-06
6.11454e-07
-2.71103e-06
8.26217e-07
-2.14836e-06
9.89375e-07
-1.64562e-06
1.10727e-06
-1.19821e-06
1.18556e-06
-8.01072e-07
1.22932e-06
-4.49304e-07
1.24304e-06
-1.38417e-07
1.23073e-06
1.35661e-07
1.19605e-06
3.76529e-07
1.14233e-06
5.87096e-07
1.07266e-06
7.69427e-07
9.89971e-07
9.24624e-07
8.97162e-07
1.05272e-06
7.97134e-07
1.15237e-06
6.92889e-07
1.2203e-06
5.87349e-07
1.25041e-06
4.82944e-07
1.23245e-06
3.80502e-07
1.15026e-06
2.76778e-07
9.79972e-07
1.5844e-07
6.83784e-07
1.84744e-07
-6.20558e-06
4.10711e-05
-9.55741e-06
2.8037e-05
-1.10297e-05
1.57962e-05
-1.09285e-05
4.81404e-06
-9.98224e-06
-2.62522e-06
-8.67615e-06
-7.09832e-06
-7.29812e-06
-9.37187e-06
-5.98746e-06
-1.02202e-05
-4.79966e-06
-1.02071e-05
-3.74902e-06
-9.69897e-06
-2.83267e-06
-8.92543e-06
-2.04125e-06
-8.02441e-06
-1.36385e-06
-7.08124e-06
-7.89494e-07
-6.14799e-06
-3.07741e-07
-5.25636e-06
9.1285e-08
-4.42474e-06
4.16811e-07
-3.66219e-06
6.77373e-07
-2.97159e-06
8.8078e-07
-2.35175e-06
1.03407e-06
-1.7989e-06
1.1436e-06
-1.30774e-06
1.21504e-06
-8.72523e-07
1.25339e-06
-4.87665e-07
1.26307e-06
-1.48089e-07
1.24798e-06
1.50753e-07
1.21166e-06
4.12855e-07
1.1573e-06
6.41447e-07
1.08789e-06
8.38842e-07
1.0062e-06
1.00631e-06
9.14922e-07
1.144e-06
8.16682e-07
1.2506e-06
7.14081e-07
1.3229e-06
6.09474e-07
1.35502e-06
5.04503e-07
1.33741e-06
3.99071e-07
1.25569e-06
2.89252e-07
1.08978e-06
1.63037e-07
8.10007e-07
3.47775e-07
-7.29603e-06
4.83671e-05
-1.08185e-05
3.15595e-05
-1.21871e-05
1.71648e-05
-1.17793e-05
4.40623e-06
-1.05031e-05
-3.9014e-06
-8.92885e-06
-8.67265e-06
-7.36189e-06
-1.09388e-05
-5.93125e-06
-1.16509e-05
-4.67453e-06
-1.14638e-05
-3.58959e-06
-1.07839e-05
-2.66116e-06
-9.85388e-06
-1.87127e-06
-8.81431e-06
-1.20328e-06
-7.74923e-06
-6.42538e-07
-6.70872e-06
-1.76242e-07
-5.72266e-06
2.06965e-07
-4.80794e-06
5.17239e-07
-3.97245e-06
7.63672e-07
-3.21802e-06
9.54374e-07
-2.54245e-06
1.09652e-06
-1.94104e-06
1.19649e-06
-1.4077e-06
1.25991e-06
-9.35946e-07
1.29174e-06
-5.19497e-07
1.29628e-06
-1.52633e-07
1.27733e-06
1.69708e-07
1.23829e-06
4.51911e-07
1.1822e-06
6.97527e-07
1.1119e-06
9.09142e-07
1.02999e-06
1.08823e-06
9.38919e-07
1.23507e-06
8.4102e-07
1.3485e-06
7.38472e-07
1.42545e-06
6.33084e-07
1.46042e-06
5.25816e-07
1.44467e-06
4.15893e-07
1.36561e-06
2.99174e-07
1.20649e-06
1.65486e-07
9.43703e-07
5.13258e-07
-8.83819e-06
5.72053e-05
-1.24972e-05
3.52185e-05
-1.36202e-05
1.82878e-05
-1.27827e-05
3.56876e-06
-1.10879e-05
-5.59624e-06
-9.19436e-06
-1.05662e-05
-7.41237e-06
-1.27208e-05
-5.85005e-06
-1.32132e-05
-4.52023e-06
-1.27936e-05
-3.40045e-06
-1.19037e-05
-2.461e-06
-1.07933e-05
-1.6743e-06
-9.601e-06
-1.01758e-06
-8.40596e-06
-4.72242e-07
-7.25405e-06
-2.30703e-08
-6.17184e-06
3.42784e-07
-5.17381e-06
6.36409e-07
-4.26609e-06
8.67435e-07
-3.44906e-06
1.04426e-06
-2.71928e-06
1.17417e-06
-2.07096e-06
1.26356e-06
-1.49709e-06
1.31801e-06
-9.90401e-07
1.34239e-06
-5.43882e-07
1.3409e-06
-1.51148e-07
1.3172e-06
1.93412e-07
1.27454e-06
4.94585e-07
1.21581e-06
7.56249e-07
1.14368e-06
9.81278e-07
1.06052e-06
1.17138e-06
9.68577e-07
1.32703e-06
8.69836e-07
1.44724e-06
7.66066e-07
1.52922e-06
6.58564e-07
1.56792e-06
5.47708e-07
1.55552e-06
4.32248e-07
1.48108e-06
3.0811e-07
1.33062e-06
1.67114e-07
1.0847e-06
6.80371e-07
-1.1129e-05
6.83342e-05
-1.48174e-05
3.89069e-05
-1.54005e-05
1.88709e-05
-1.39513e-05
2.11954e-06
-1.17298e-05
-7.8177e-06
-9.46315e-06
-1.28328e-05
-7.44219e-06
-1.47418e-05
-5.73964e-06
-1.49157e-05
-4.33529e-06
-1.4198e-05
-3.18221e-06
-1.30568e-05