/*--------------------------------*- C++ -*----------------------------------*\
  =========                 |
  \\      /  F ield         | OpenFOAM: The Open Source CFD Toolbox
   \\    /   O peration     | Website:  https://openfoam.org
    \\  /    A nd           | Version:  7
     \\/     M anipulation  |
\*---------------------------------------------------------------------------*/
FoamFile
{
    version     2.0;
    format      ascii;
    class       volVectorField;
    location    "0.2";
    object      U;
}
// * * * * * * * * * * * * * * * * * * * * * * * * * * * * * * * * * * * * * //

dimensions      [0 1 -1 0 0 0 0];

internalField   nonuniform List<vector> 
9072
(
(-0.0230281 0.00661437 0)
(-0.0134958 -0.00758329 0)
(0.0253491 -0.0131042 0)
(0.069736 -0.0142717 0)
(0.115453 -0.0139438 0)
(0.160254 -0.0132448 0)
(0.203353 -0.0125672 0)
(0.244795 -0.0119978 0)
(0.284887 -0.0115437 0)
(0.323955 -0.0111958 0)
(0.362291 -0.0109403 0)
(0.400156 -0.010763 0)
(0.437781 -0.0106521 0)
(0.475367 -0.0105979 0)
(0.513092 -0.0105926 0)
(0.55111 -0.0106295 0)
(0.589555 -0.0107035 0)
(0.628546 -0.0108104 0)
(0.668186 -0.0109465 0)
(0.708561 -0.011108 0)
(0.749739 -0.0112905 0)
(0.791765 -0.0114889 0)
(0.834658 -0.0116964 0)
(0.878404 -0.0119048 0)
(0.922946 -0.0121027 0)
(0.968175 -0.0122752 0)
(1.01391 -0.0124024 0)
(1.0599 -0.0124588 0)
(1.10575 -0.0124118 0)
(1.15096 -0.0122206 0)
(1.19484 -0.0118331 0)
(1.23648 -0.0111817 0)
(1.2747 -0.0101719 0)
(1.30786 -0.00868407 0)
(1.3338 -0.00646437 0)
(1.34931 -0.00297287 0)
(1.34915 0.00344172 0)
(1.31994 0.0141099 0)
(1.24856 0.0303105 0)
(1.11795 0.0530686 0)
(0.908778 0.0792601 0)
(0.618206 0.09708 0)
(0.282262 0.0885121 0)
(-0.00661555 0.056861 0)
(-0.236721 -0.00242868 0)
(-0.176471 -0.112854 0)
(-0.0060605 0.010826 0)
(0.0153675 -0.0175724 0)
(0.0527273 -0.0292327 0)
(0.0943712 -0.0324524 0)
(0.137266 -0.0325054 0)
(0.179733 -0.0315593 0)
(0.221092 -0.0304523 0)
(0.26129 -0.0294589 0)
(0.300499 -0.0286581 0)
(0.338945 -0.0280622 0)
(0.376863 -0.0276582 0)
(0.414478 -0.0274266 0)
(0.451994 -0.027348 0)
(0.489597 -0.0274045 0)
(0.527452 -0.02758 0)
(0.565706 -0.0278603 0)
(0.604487 -0.0282327 0)
(0.643907 -0.0286853 0)
(0.684058 -0.029206 0)
(0.725017 -0.0297817 0)
(0.766836 -0.0303968 0)
(0.809545 -0.0310326 0)
(0.853141 -0.0316663 0)
(0.897587 -0.0322701 0)
(0.942798 -0.0328084 0)
(0.988635 -0.0332363 0)
(1.03489 -0.0334969 0)
(1.08127 -0.0335186 0)
(1.12736 -0.0332122 0)
(1.17263 -0.0324662 0)
(1.21638 -0.0311393 0)
(1.25769 -0.0290487 0)
(1.29535 -0.0259489 0)
(1.32781 -0.0215068 0)
(1.35307 -0.0151842 0)
(1.36856 -0.00602114 0)
(1.37234 0.00768252 0)
(1.3655 0.0283029 0)
(1.34424 0.0584153 0)
(1.30074 0.100878 0)
(1.21599 0.155077 0)
(1.05341 0.208001 0)
(0.779736 0.228556 0)
(0.444472 0.195104 0)
(0.104385 0.107442 0)
(0.0283286 -0.119773 0)
(0.0081315 0.00358284 0)
(0.0338123 -0.0322298 0)
(0.0710912 -0.0471536 0)
(0.11083 -0.0513994 0)
(0.15146 -0.0515405 0)
(0.191885 -0.0503043 0)
(0.231568 -0.0487909 0)
(0.270424 -0.0474053 0)
(0.308555 -0.0462825 0)
(0.346129 -0.0454542 0)
(0.383335 -0.0449113 0)
(0.420366 -0.0446309 0)
(0.457405 -0.0445869 0)
(0.494619 -0.0447537 0)
(0.53216 -0.0451072 0)
(0.570162 -0.0456252 0)
(0.608745 -0.0462871 0)
(0.648007 -0.0470728 0)
(0.688031 -0.0479618 0)
(0.72888 -0.0489312 0)
(0.770591 -0.0499543 0)
(0.813178 -0.0509996 0)
(0.856621 -0.0520286 0)
(0.900864 -0.0529944 0)
(0.945802 -0.0538381 0)
(0.991276 -0.0544862 0)
(1.03706 -0.0548461 0)
(1.08283 -0.0548024 0)
(1.12817 -0.0542114 0)
(1.17254 -0.0528933 0)
(1.21522 -0.0506204 0)
(1.25529 -0.0470993 0)
(1.29158 -0.0419433 0)
(1.32259 -0.0346347 0)
(1.3464 -0.0244525 0)
(1.3606 -0.0104402 0)
(1.36219 0.00876422 0)
(1.34883 0.0355687 0)
(1.31825 0.0734271 0)
(1.26932 0.126937 0)
(1.20176 0.199257 0)
(1.10767 0.282197 0)
(0.949758 0.342975 0)
(0.702775 0.336871 0)
(0.365845 0.23619 0)
(0.151986 -0.0291206 0)
(0.0153391 -0.00854078 0)
(0.046153 -0.0486533 0)
(0.0846542 -0.0652129 0)
(0.123568 -0.0699975 0)
(0.162727 -0.0701387 0)
(0.201654 -0.0686561 0)
(0.240015 -0.0668125 0)
(0.27776 -0.0651071 0)
(0.314966 -0.0637225 0)
(0.351771 -0.0627105 0)
(0.388335 -0.0620678 0)
(0.424829 -0.0617702 0)
(0.461416 -0.0617869 0)
(0.498248 -0.0620855 0)
(0.535465 -0.0626346 0)
(0.573191 -0.0634046 0)
(0.611532 -0.0643666 0)
(0.65058 -0.0654924 0)
(0.690405 -0.0667521 0)
(0.731057 -0.0681127 0)
(0.772563 -0.0695359 0)
(0.814923 -0.0709764 0)
(0.858103 -0.0723797 0)
(0.902032 -0.0736788 0)
(0.94659 -0.0747912 0)
(0.991602 -0.0756139 0)
(1.03682 -0.0760188 0)
(1.08193 -0.075847 0)
(1.12649 -0.0749007 0)
(1.16996 -0.0729333 0)
(1.21161 -0.0696332 0)
(1.25056 -0.0646014 0)
(1.28566 -0.0573182 0)
(1.31547 -0.0470989 0)
(1.33815 -0.0330287 0)
(1.35145 -0.0139048 0)
(1.35254 0.0119029 0)
(1.33837 0.0466662 0)
(1.3059 0.0934908 0)
(1.25306 0.156208 0)
(1.18009 0.238066 0)
(1.08949 0.33578 0)
(0.969168 0.425657 0)
(0.786458 0.458013 0)
(0.492192 0.378859 0)
(0.219985 0.112123 0)
(0.0185997 -0.0240641 0)
(0.0539469 -0.066857 0)
(0.0944248 -0.0836314 0)
(0.133429 -0.08841 0)
(0.171874 -0.0884015 0)
(0.209846 -0.0866793 0)
(0.247254 -0.0845646 0)
(0.284138 -0.0826077 0)
(0.320593 -0.0810238 0)
(0.356753 -0.0798815 0)
(0.392766 -0.0791839 0)
(0.428788 -0.0789071 0)
(0.46497 -0.0790163 0)
(0.501453 -0.0794739 0)
(0.538366 -0.0802419 0)
(0.575824 -0.0812831 0)
(0.613924 -0.0825609 0)
(0.652747 -0.0840384 0)
(0.692356 -0.0856762 0)
(0.732791 -0.0874306 0)
(0.774067 -0.0892513 0)
(0.816174 -0.0910787 0)
(0.859066 -0.0928413 0)
(0.90266 -0.094452 0)
(0.946824 -0.0958039 0)
(0.991371 -0.0967649 0)
(1.03605 -0.0971715 0)
(1.08052 -0.096822 0)
(1.12436 -0.0954663 0)
(1.167 -0.0927934 0)
(1.20777 -0.0884119 0)
(1.24577 -0.0818232 0)
(1.27991 -0.0723844 0)
(1.30882 -0.0592574 0)
(1.33077 -0.0413434 0)
(1.34366 -0.0172091 0)
(1.34487 0.0149981 0)
(1.33141 0.0576679 0)
(1.30003 0.113788 0)
(1.24792 0.186549 0)
(1.1734 0.278086 0)
(1.07729 0.385902 0)
(0.956067 0.493679 0)
(0.791946 0.560074 0)
(0.532138 0.519813 0)
(0.245997 0.280648 0)
(0.0200073 -0.0413567 0)
(0.0586573 -0.0865233 0)
(0.101224 -0.102574 0)
(0.140886 -0.106786 0)
(0.179199 -0.106386 0)
(0.216679 -0.104351 0)
(0.253472 -0.10197 0)
(0.289736 -0.099795 0)
(0.325613 -0.0980538 0)
(0.361253 -0.0968222 0)
(0.396807 -0.0961067 0)
(0.432426 -0.0958826 0)
(0.468253 -0.0961117 0)
(0.504423 -0.0967511 0)
(0.541057 -0.0977564 0)
(0.578261 -0.0990834 0)
(0.616127 -0.100688 0)
(0.654728 -0.102524 0)
(0.694118 -0.104542 0)
(0.734329 -0.106688 0)
(0.775369 -0.1089 0)
(0.817216 -0.111102 0)
(0.859816 -0.113207 0)
(0.903074 -0.115106 0)
(0.946851 -0.11667 0)
(0.99095 -0.117736 0)
(1.03511 -0.118108 0)
(1.079 -0.117542 0)
(1.12217 -0.115738 0)
(1.1641 -0.112325 0)
(1.2041 -0.106836 0)
(1.24133 -0.0986824 0)
(1.27474 -0.0871082 0)
(1.30303 -0.0711376 0)
(1.32462 -0.0495046 0)
(1.33754 -0.0205742 0)
(1.33941 0.017723 0)
(1.32738 0.0679554 0)
(1.29821 0.133153 0)
(1.24859 0.21629 0)
(1.1754 0.318955 0)
(1.07654 0.438522 0)
(0.947946 0.561967 0)
(0.779931 0.655888 0)
(0.534108 0.656059 0)
(0.248381 0.455407 0)
(0.020527 -0.0596059 0)
(0.0614285 -0.107335 0)
(0.105843 -0.122153 0)
(0.146413 -0.125349 0)
(0.184972 -0.124295 0)
(0.222303 -0.121823 0)
(0.258759 -0.11913 0)
(0.294612 -0.116733 0)
(0.33007 -0.114849 0)
(0.365308 -0.113549 0)
(0.400491 -0.112838 0)
(0.435772 -0.112688 0)
(0.471294 -0.113056 0)
(0.507187 -0.113892 0)
(0.543567 -0.115148 0)
(0.580536 -0.11677 0)
(0.618179 -0.118707 0)
(0.656564 -0.120905 0)
(0.695738 -0.123303 0)
(0.735726 -0.125837 0)
(0.776528 -0.128431 0)
(0.818116 -0.130996 0)
(0.860426 -0.133426 0)
(0.903357 -0.135593 0)
(0.946761 -0.137343 0)
(0.990436 -0.138487 0)
(1.03412 -0.138794 0)
(1.07747 -0.137982 0)
(1.12006 -0.135703 0)
(1.16136 -0.13153 0)
(1.20071 -0.12493 0)
(1.23733 -0.115228 0)
(1.27021 -0.101571 0)
(1.29815 -0.0828584 0)
(1.3197 -0.0576771 0)
(1.33306 -0.0242117 0)
(1.33605 0.0198187 0)
(1.32603 0.0772011 0)
(1.29979 0.15115 0)
(1.25366 0.244744 0)
(1.18337 0.359589 0)
(1.08445 0.493225 0)
(0.950525 0.63411 0)
(0.773652 0.753048 0)
(0.527473 0.789952 0)
(0.245133 0.631046 0)
(0.0205915 -0.0783561 0)
(0.0630271 -0.128991 0)
(0.108943 -0.142351 0)
(0.150458 -0.144219 0)
(0.189457 -0.142281 0)
(0.226867 -0.139233 0)
(0.26319 -0.136157 0)
(0.298803 -0.133509 0)
(0.333973 -0.131475 0)
(0.368913 -0.130112 0)
(0.403806 -0.129416 0)
(0.438811 -0.129351 0)
(0.474075 -0.129869 0)
(0.509726 -0.130913 0)
(0.545879 -0.132427 0)
(0.582631 -0.13435 0)
(0.620065 -0.136623 0)
(0.658242 -0.139182 0)
(0.697204 -0.141959 0)
(0.736973 -0.144875 0)
(0.777542 -0.147843 0)
(0.818875 -0.150758 0)
(0.860903 -0.153498 0)
(0.903519 -0.155915 0)
(0.946567 -0.157831 0)
(0.989844 -0.159029 0)
(1.03308 -0.159248 0)
(1.07594 -0.158167 0)
(1.11801 -0.155397 0)
(1.15877 -0.150458 0)
(1.1976 -0.142755 0)
(1.23374 -0.131542 0)
(1.26628 -0.115876 0)
(1.29411 -0.094551 0)
(1.31591 -0.0660239 0)
(1.33007 -0.0283176 0)
(1.33461 0.0210543 0)
(1.32709 0.0851311 0)
(1.30439 0.167437 0)
(1.26256 0.271415 0)
(1.19638 0.399118 0)
(1.09941 0.548642 0)
(0.962946 0.709321 0)
(0.778456 0.853636 0)
(0.526076 0.92409 0)
(0.243668 0.803979 0)
(0.0204443 -0.0973482 0)
(0.0639457 -0.151253 0)
(0.111023 -0.163084 0)
(0.153395 -0.163421 0)
(0.192898 -0.160417 0)
(0.230511 -0.156667 0)
(0.266837 -0.153131 0)
(0.302334 -0.15019 0)
(0.337324 -0.147987 0)
(0.372054 -0.146555 0)
(0.406725 -0.145875 0)
(0.441511 -0.1459 0)
(0.476559 -0.146572 0)
(0.512002 -0.147829 0)
(0.547953 -0.149605 0)
(0.584508 -0.151832 0)
(0.621745 -0.154443 0)
(0.659725 -0.157363 0)
(0.698485 -0.160514 0)
(0.738041 -0.163807 0)
(0.778382 -0.16714 0)
(0.819468 -0.170395 0)
(0.861225 -0.173432 0)
(0.903538 -0.176082 0)
(0.946252 -0.178145 0)
(0.989157 -0.179379 0)
(1.03199 -0.179491 0)
(1.07441 -0.178127 0)
(1.11602 -0.174857 0)
(1.15633 -0.169156 0)
(1.19473 -0.160373 0)
(1.23053 -0.147699 0)
(1.26289 -0.130116 0)
(1.2908 -0.106331 0)
(1.3131 -0.074687 0)
(1.32835 -0.0330636 0)
(1.33479 0.0212244 0)
(1.33022 0.0914977 0)
(1.31161 0.181695 0)
(1.27481 0.295857 0)
(1.21382 0.436843 0)
(1.12045 0.603676 0)
(0.983804 0.78635 0)
(0.793993 0.957646 0)
(0.534221 1.06046 0)
(0.245695 0.978359 0)
(0.0202448 -0.11645 0)
(0.0644915 -0.173948 0)
(0.112432 -0.184249 0)
(0.155511 -0.182929 0)
(0.195492 -0.178727 0)
(0.233354 -0.174169 0)
(0.269762 -0.170102 0)
(0.305228 -0.166823 0)
(0.340118 -0.164426 0)
(0.374707 -0.162913 0)
(0.409216 -0.162243 0)
(0.443829 -0.162356 0)
(0.478702 -0.163185 0)
(0.513967 -0.164655 0)
(0.54974 -0.166694 0)
(0.586116 -0.169226 0)
(0.623172 -0.172172 0)
(0.660966 -0.175451 0)
(0.699532 -0.178972 0)
(0.738884 -0.182636 0)
(0.779006 -0.186327 0)
(0.819855 -0.189912 0)
(0.861352 -0.193233 0)
(0.90338 -0.196102 0)
(0.945779 -0.198298 0)
(0.98834 -0.199552 0)
(1.0308 -0.199544 0)
(1.07283 -0.197888 0)
(1.11405 -0.194117 0)
(1.15397 -0.187665 0)
(1.19204 -0.177834 0)
(1.22761 -0.163763 0)
(1.25992 -0.144372 0)
(1.28809 -0.118294 0)
(1.31107 -0.0837825 0)
(1.32765 -0.0385903 0)
(1.33629 0.0201582 0)
(1.33502 0.0960877 0)
(1.32095 0.193644 0)
(1.28982 0.317664 0)
(1.23496 0.47216 0)
(1.14658 0.657454 0)
(1.01165 0.864146 0)
(0.818548 1.06456 0)
(0.551872 1.20048 0)
(0.251907 1.15684 0)
(0.0200882 -0.135609 0)
(0.0648412 -0.196945 0)
(0.113387 -0.20574 0)
(0.157002 -0.202692 0)
(0.197385 -0.197201 0)
(0.23549 -0.191757 0)
(0.272013 -0.187097 0)
(0.3075 -0.18344 0)
(0.342345 -0.180823 0)
(0.376847 -0.179212 0)
(0.411241 -0.178543 0)
(0.445722 -0.17874 0)
(0.480452 -0.179721 0)
(0.515568 -0.181403 0)
(0.551186 -0.183704 0)
(0.587401 -0.186538 0)
(0.62429 -0.189818 0)
(0.66191 -0.193452 0)
(0.700293 -0.197339 0)
(0.73945 -0.201368 0)
(0.779363 -0.205409 0)
(0.819985 -0.209314 0)
(0.861235 -0.212908 0)
(0.902994 -0.215985 0)
(0.9451 -0.218301 0)
(0.987346 -0.219564 0)
(1.02947 -0.219427 0)
(1.07116 -0.217474 0)
(1.11203 -0.213208 0)
(1.15163 -0.206023 0)
(1.18945 -0.195185 0)
(1.22489 -0.179789 0)
(1.25727 -0.158707 0)
(1.28581 -0.130516 0)
(1.30963 -0.093399 0)
(1.3277 -0.0450025 0)
(1.33873 0.0177291 0)
(1.34098 0.0987401 0)
(1.33176 0.203058 0)
(1.30674 0.336502 0)
(1.25872 0.504559 0)
(1.1764 0.709259 0)
(1.04464 0.941836 0)
(0.849963 1.17373 0)
(0.57762 1.345 0)
(0.262633 1.34243 0)
(0.0200144 -0.154812 0)
(0.06508 -0.220142 0)
(0.11401 -0.227461 0)
(0.157989 -0.222646 0)
(0.198672 -0.215812 0)
(0.236983 -0.209427 0)
(0.273624 -0.204131 0)
(0.309157 -0.200061 0)
(0.343993 -0.197199 0)
(0.378445 -0.195473 0)
(0.412761 -0.194794 0)
(0.447143 -0.195066 0)
(0.481759 -0.196194 0)
(0.51675 -0.198084 0)
(0.552232 -0.200643 0)
(0.588304 -0.203776 0)
(0.62504 -0.207386 0)
(0.662498 -0.211371 0)
(0.700708 -0.215619 0)
(0.739681 -0.220006 0)
(0.779395 -0.224389 0)
(0.819802 -0.228606 0)
(0.860819 -0.232464 0)
(0.902325 -0.235739 0)
(0.94416 -0.238165 0)
(0.986116 -0.239428 0)
(1.02794 -0.239156 0)
(1.06932 -0.236908 0)
(1.1099 -0.232154 0)
(1.14924 -0.224262 0)
(1.18688 -0.212463 0)
(1.22226 -0.195819 0)
(1.25478 -0.173168 0)
(1.28378 -0.143049 0)
(1.30853 -0.103594 0)
(1.32819 -0.0523626 0)
(1.34169 0.013867 0)
(1.34755 0.0993689 0)
(1.34326 0.209812 0)
(1.32451 0.352156 0)
(1.28363 0.533678 0)
(1.20788 0.758558 0)
(1.08024 1.01871 0)
(0.885538 1.28439 0)
(0.609604 1.49423 0)
(0.277901 1.5382 0)
(0.0200246 -0.174063 0)
(0.0652349 -0.243445 0)
(0.114357 -0.249319 0)
(0.158538 -0.242726 0)
(0.199411 -0.234524 0)
(0.237872 -0.227167 0)
(0.274613 -0.221204 0)
(0.310199 -0.216695 0)
(0.345045 -0.213568 0)
(0.379472 -0.211712 0)
(0.413736 -0.21101 0)
(0.448045 -0.211348 0)
(0.48257 -0.212617 0)
(0.517456 -0.214709 0)
(0.55282 -0.21752 0)
(0.588763 -0.220947 0)
(0.62536 -0.224882 0)
(0.662666 -0.229213 0)
(0.700715 -0.233816 0)
(0.739512 -0.238555 0)
(0.779037 -0.243274 0)
(0.819241 -0.247795 0)
(0.860038 -0.251909 0)
(0.901309 -0.255373 0)
(0.942893 -0.257901 0)
(0.984585 -0.259158 0)
(1.02614 -0.25875 0)
(1.06725 -0.256208 0)
(1.10757 -0.25098 0)
(1.14671 -0.242407 0)
(1.18421 -0.229695 0)
(1.21959 -0.211883 0)
(1.25231 -0.187786 0)
(1.28182 -0.155923 0)
(1.30753 -0.114391 0)
(1.32877 -0.0606862 0)
(1.34471 0.00856787 0)
(1.35409 0.0979829 0)
(1.35456 0.213922 0)
(1.34179 0.364632 0)
(1.30774 0.559474 0)
(1.2382 0.805199 0)
(1.11481 1.09428 0)
(0.921632 1.39559 0)
(0.645664 1.64744 0)
(0.297636 1.74646 0)
(0.0201125 -0.193373 0)
(0.0653054 -0.266762 0)
(0.114445 -0.271231 0)
(0.158678 -0.262867 0)
(0.199632 -0.253294 0)
(0.238178 -0.244956 0)
(0.274989 -0.23831 0)
(0.310619 -0.233346 0)
(0.345481 -0.229938 0)
(0.379898 -0.227938 0)
(0.414128 -0.227202 0)
(0.448382 -0.227598 0)
(0.482834 -0.228999 0)
(0.51763 -0.231286 0)
(0.552891 -0.234344 0)
(0.588717 -0.238059 0)
(0.625186 -0.242314 0)
(0.662351 -0.246985 0)
(0.700246 -0.251937 0)
(0.738877 -0.257023 0)
(0.778224 -0.262071 0)
(0.818235 -0.266889 0)
(0.858826 -0.271252 0)
(0.899877 -0.274899 0)
(0.941229 -0.277525 0)
(0.98268 -0.278773 0)
(1.02399 -0.278228 0)
(1.06486 -0.275399 0)
(1.10497 -0.269713 0)
(1.14393 -0.260488 0)
(1.18134 -0.246912 0)
(1.21675 -0.22801 0)
(1.2497 -0.202586 0)
(1.27972 -0.169151 0)
(1.30635 -0.12579 0)
(1.3291 -0.0699495 0)
(1.34732 0.00188887 0)
(1.35991 0.0946903 0)
(1.36466 0.215589 0)
(1.35706 0.374304 0)
(1.3286 0.582599 0)
(1.2634 0.850022 0)
(1.14298 1.16874 0)
(0.95298 1.50608 0)
(0.683048 1.80273 0)
(0.322024 1.97022 0)
(0.0202875 -0.212747 0)
(0.0652875 -0.290017 0)
(0.114272 -0.293121 0)
(0.158423 -0.283009 0)
(0.19935 -0.272081 0)
(0.237912 -0.262767 0)
(0.274755 -0.255435 0)
(0.31041 -0.250008 0)
(0.345284 -0.246309 0)
(0.379694 -0.244155 0)
(0.413899 -0.243377 0)
(0.448108 -0.24382 0)
(0.482499 -0.245346 0)
(0.517217 -0.247821 0)
(0.552386 -0.251119 0)
(0.588106 -0.255117 0)
(0.624454 -0.259685 0)
(0.661486 -0.264691 0)
(0.699236 -0.269988 0)
(0.737709 -0.275413 0)
(0.776885 -0.280786 0)
(0.816713 -0.285896 0)
(0.85711 -0.290502 0)
(0.897954 -0.294327 0)
(0.93909 -0.297046 0)
(0.98032 -0.298284 0)
(1.02141 -0.297604 0)
(1.06207 -0.294497 0)
(1.10199 -0.288369 0)
(1.1408 -0.278521 0)
(1.17814 -0.264129 0)
(1.21359 -0.24421 0)
(1.24675 -0.217569 0)
(1.27725 -0.18272 0)
(1.30472 -0.13775 0)
(1.3288 -0.0800719 0)
(1.34899 -0.00603053 0)
(1.36433 0.0897338 0)
(1.37257 0.215268 0)
(1.36875 0.382104 0)
(1.34336 0.604741 0)
(1.27773 0.894982 0)
(1.15618 1.24283 0)
(0.971319 1.61403 0)
(0.718344 1.95623 0)
(0.350727 2.20636 0)
(0.0205393 -0.232143 0)
(0.0651777 -0.313215 0)
(0.113822 -0.314937 0)
(0.157771 -0.303106 0)
(0.198568 -0.290848 0)
(0.237078 -0.280573 0)
(0.273908 -0.27256 0)
(0.309563 -0.266668 0)
(0.344435 -0.262672 0)
(0.378834 -0.260357 0)
(0.413014 -0.259528 0)
(0.447184 -0.260012 0)
(0.481519 -0.261654 0)
(0.516166 -0.26431 0)
(0.551249 -0.267842 0)
(0.586868 -0.272115 0)
(0.623101 -0.276991 0)
(0.660006 -0.282324 0)
(0.697616 -0.287958 0)
(0.735937 -0.293719 0)
(0.774949 -0.299408 0)
(0.814602 -0.304804 0)
(0.854813 -0.309648 0)
(0.895463 -0.313645 0)
(0.936398 -0.316453 0)
(0.977423 -0.317678 0)
(1.01831 -0.316865 0)
(1.05877 -0.313485 0)
(1.09852 -0.306928 0)
(1.13721 -0.296483 0)
(1.17447 -0.281317 0)
(1.20996 -0.260445 0)
(1.24331 -0.232682 0)
(1.2742 -0.196558 0)
(1.30236 -0.150168 0)
(1.32751 -0.0908997 0)
(1.34924 -0.0149421 0)
(1.36667 0.0835527 0)
(1.37744 0.213766 0)
(1.37551 0.389007 0)
(1.34895 0.62606 0)
(1.27268 0.936723 0)
(1.13986 1.31008 0)
(0.962463 1.71235 0)
(0.743643 2.09968 0)
(0.388587 2.46559 0)
(-0.0397485 0.0154415 0)
(-0.103336 0.0137464 0)
(-0.15229 0.00861886 0)
(-0.180308 0.00314464 0)
(-0.18822 -0.000867908 0)
(-0.182215 -0.00406166 0)
(-0.167641 -0.00569839 0)
(-0.148235 -0.00644404 0)
(-0.126771 -0.00657975 0)
(-0.105052 -0.00632073 0)
(-0.0842202 -0.00584729 0)
(-0.0649514 -0.00525379 0)
(-0.0475885 -0.0046063 0)
(-0.0322952 -0.00394612 0)
(-0.0190803 -0.00330871 0)
(-0.00785139 -0.00272512 0)
(0.00154886 -0.00220559 0)
(0.00929347 -0.00174697 0)
(0.0155449 -0.00134283 0)
(0.0204493 -0.000984447 0)
(0.0241391 -0.00066816 0)
(0.0267349 -0.000390154 0)
(0.0283464 -0.000150111 0)
(0.0290653 6.52452e-05 0)
(0.0289912 0.000301377 0)
(0.0282119 0.000501857 0)
(0.0267841 0.000678711 0)
(0.0247691 0.000835971 0)
(0.0222272 0.000974741 0)
(0.0192178 0.00109582 0)
(0.0157986 0.00120002 0)
(0.0120304 0.00128592 0)
(0.00798735 0.00134866 0)
(0.00378142 0.0013732 0)
(-0.000449719 0.00131786 0)
(-0.00409486 0.00110212 0)
(-0.00698951 0.000262987 0)
(-0.00475248 -0.00160285 0)
(-0.0459269 0.0455217 0)
(-0.111414 0.0383333 0)
(-0.157414 0.0254102 0)
(-0.182586 0.0117219 0)
(-0.189353 0.00111947 0)
(-0.183423 -0.00627389 0)
(-0.168615 -0.0107301 0)
(-0.148999 -0.0130292 0)
(-0.127245 -0.0138276 0)
(-0.105188 -0.0136449 0)
(-0.0839844 -0.0128793 0)
(-0.0643452 -0.0117751 0)
(-0.0466208 -0.010508 0)
(-0.030979 -0.00918819 0)
(-0.0174207 -0.00789202 0)
(-0.0058658 -0.00667274 0)
(0.00381536 -0.00555162 0)
(0.0117765 -0.00453358 0)
(0.0181775 -0.00361672 0)
(0.0231718 -0.00279169 0)
(0.0269033 -0.0020505 0)
(0.0295034 -0.00138655 0)
(0.0310925 -0.000799307 0)
(0.0317872 -0.000281271 0)
(0.0316658 0.00020014 0)
(0.0308064 0.000640653 0)
(0.0293003 0.00103863 0)
(0.0272142 0.00139632 0)
(0.0246134 0.00171481 0)
(0.0215622 0.00199503 0)
(0.0181255 0.00223688 0)
(0.0143729 0.00243501 0)
(0.0103897 0.00257394 0)
(0.00629961 0.0026144 0)
(0.0022666 0.00245884 0)
(-0.00115292 0.00192629 0)
(-0.00393775 0.000314421 0)
(-0.00297752 -0.00356678 0)
(-0.0447991 0.0775739 0)
(-0.111305 0.0621929 0)
(-0.156822 0.0404092 0)
(-0.182424 0.018084 0)
(-0.1892 0.000569929 0)
(-0.182976 -0.0111482 0)
(-0.168202 -0.0183401 0)
(-0.148634 -0.0220442 0)
(-0.12697 -0.0233077 0)
(-0.105026 -0.0229686 0)
(-0.0839307 -0.02166 0)
(-0.0643857 -0.0197902 0)
(-0.0467325 -0.0176526 0)
(-0.0311338 -0.0154312 0)
(-0.0175901 -0.0132523 0)
(-0.00602977 -0.0111958 0)
(0.00366388 -0.00929922 0)
(0.011635 -0.00757373 0)
(0.0180401 -0.00601681 0)
(0.0230345 -0.00461557 0)
(0.0267655 -0.00335458 0)
(0.0293686 -0.00222033 0)
(0.0309647 -0.00120248 0)
(0.0316629 -0.00029228 0)
(0.0315647 0.00050048 0)
(0.0307586 0.00122358 0)
(0.0293233 0.00187569 0)
(0.0273353 0.00245873 0)
(0.0248642 0.00297399 0)
(0.0219779 0.00342231 0)
(0.0187462 0.00380183 0)
(0.0152461 0.00410273 0)
(0.0115714 0.00429923 0)
(0.00785249 0.00433084 0)
(0.00425789 0.00405985 0)
(0.0012487 0.00320395 0)
(-0.0012903 0.000889113 0)
(-0.000942562 -0.00453931 0)
(-0.0451312 0.110246 0)
(-0.114204 0.0867176 0)
(-0.159668 0.0558405 0)
(-0.184854 0.0248699 0)
(-0.190782 0.000809333 0)
(-0.183768 -0.0157403 0)
(-0.168446 -0.0257398 0)
(-0.148593 -0.0308584 0)
(-0.12684 -0.0325965 0)
(-0.104943 -0.032115 0)
(-0.0839672 -0.0302864 0)
(-0.0645737 -0.0276808 0)
(-0.0470757 -0.0247026 0)
(-0.0316183 -0.0216097 0)
(-0.0181962 -0.0185737 0)
(-0.00673658 -0.0157002 0)
(0.00287554 -0.0130424 0)
(0.0107824 -0.0106198 0)
(0.0171388 -0.00843164 0)
(0.0220996 -0.0064644 0)
(0.025813 -0.00469881 0)
(0.0284156 -0.00311716 0)
(0.03003 -0.00170411 0)
(0.0307672 -0.00044352 0)
(0.0307291 0.000683787 0)
(0.0300069 0.00168919 0)
(0.0286831 0.00258748 0)
(0.0268356 0.0033852 0)
(0.0245361 0.00408493 0)
(0.021855 0.00468725 0)
(0.0188656 0.0051883 0)
(0.0156496 0.00557328 0)
(0.0123048 0.00580616 0)
(0.00896149 0.0058079 0)
(0.00577792 0.00541027 0)
(0.00310946 0.00427417 0)
(0.000770263 0.00147571 0)
(0.000536221 -0.00459487 0)
(-0.0476076 0.14397 0)
(-0.119994 0.112006 0)
(-0.165649 0.0713219 0)
(-0.189986 0.0312829 0)
(-0.194361 0.000396901 0)
(-0.18589 -0.0207055 0)
(-0.169437 -0.0333824 0)
(-0.148862 -0.0398023 0)
(-0.126726 -0.0419239 0)
(-0.104697 -0.0412399 0)
(-0.0837509 -0.0388568 0)
(-0.0644777 -0.0355017 0)
(-0.0471437 -0.031682 0)
(-0.0318616 -0.0277239 0)
(-0.0186102 -0.02384 0)
(-0.00730671 -0.0201595 0)
(0.00216953 -0.0167501 0)
(0.00996379 -0.0136392 0)
(0.0162316 -0.0108285 0)
(0.0211273 -0.0083035 0)
(0.0247989 -0.00604141 0)
(0.0273836 -0.00401897 0)
(0.0290049 -0.00221453 0)
(0.029774 -0.000606931 0)
(0.0297921 0.000825492 0)
(0.029152 0.00209956 0)
(0.0279377 0.00323155 0)
(0.0262275 0.00423082 0)
(0.0240942 0.00510136 0)
(0.0216095 0.00584346 0)
(0.0188486 0.00645086 0)
(0.0158949 0.00690371 0)
(0.0128464 0.00715693 0)
(0.00982652 0.00711746 0)
(0.00697359 0.00659873 0)
(0.00454424 0.00524139 0)
(0.00230731 0.00217698 0)
(0.00150817 -0.00406453 0)
(-0.0522281 0.179887 0)
(-0.128625 0.138176 0)
(-0.174657 0.0867021 0)
(-0.197799 0.0370188 0)
(-0.199913 -0.000815425 0)
(-0.189276 -0.0263692 0)
(-0.171085 -0.0415332 0)
(-0.149325 -0.0490665 0)
(-0.126486 -0.0514176 0)
(-0.10412 -0.0504216 0)
(-0.0830871 -0.0474138 0)
(-0.0638785 -0.0432695 0)
(-0.046695 -0.0385891 0)
(-0.0316023 -0.0337594 0)
(-0.0185522 -0.029029 0)
(-0.0074441 -0.024548 0)
(0.00185407 -0.020396 0)
(0.00949411 -0.0166068 0)
(0.0156346 -0.0131842 0)
(0.0204304 -0.0101123 0)
(0.0240294 -0.00736438 0)
(0.0265687 -0.00491153 0)
(0.0281722 -0.00272636 0)
(0.0289509 -0.000783369 0)
(0.0290058 0.000942586 0)
(0.0284289 0.00247348 0)
(0.0273045 0.00382754 0)
(0.0257104 0.00501649 0)
(0.0237196 0.00604574 0)
(0.0214041 0.00691521 0)
(0.0188391 0.00761632 0)
(0.0161072 0.00812467 0)
(0.0133024 0.00838809 0)
(0.0105371 0.00830447 0)
(0.00792417 0.00768055 0)
(0.00563541 0.00616501 0)
(0.00340767 0.00299465 0)
(0.00210862 -0.00311553 0)
(-0.0590012 0.219092 0)
(-0.140187 0.165452 0)
(-0.186704 0.101961 0)
(-0.208293 0.0418492 0)
(-0.207384 -0.00312111 0)
(-0.193836 -0.0330188 0)
(-0.173279 -0.0504261 0)
(-0.14987 -0.0588203 0)
(-0.12601 -0.0611907 0)
(-0.103105 -0.0597301 0)
(-0.0818676 -0.0559957 0)
(-0.0626652 -0.051 0)
(-0.0456141 -0.0454249 0)
(-0.0307193 -0.0397075 0)
(-0.0178951 -0.0341261 0)
(-0.00701583 -0.0288477 0)
(0.00206641 -0.0239615 0)
(0.00951286 -0.019505 0)
(0.0154871 -0.0154826 0)
(0.0201462 -0.0118762 0)
(0.0236382 -0.00865471 0)
(0.0261003 -0.00578364 0)
(0.0276561 -0.00322995 0)
(0.0284163 -0.000963233 0)
(0.0284809 0.00104538 0)
(0.0279408 0.00282168 0)
(0.026879 0.00438667 0)
(0.0253724 0.00575442 0)
(0.0234931 0.00693169 0)
(0.0213124 0.00791815 0)
(0.0189038 0.00870313 0)
(0.0163465 0.0092587 0)
(0.0137281 0.00952784 0)
(0.0111463 0.00940434 0)
(0.00868748 0.00869789 0)
(0.00645503 0.00708319 0)
(0.00416844 0.00391978 0)
(0.00245866 -0.00188426 0)
(-0.0679606 0.262668 0)
(-0.154867 0.19405 0)
(-0.201907 0.117082 0)
(-0.221535 0.0455176 0)
(-0.216734 -0.00684762 0)
(-0.199473 -0.0409514 0)
(-0.175904 -0.0602929 0)
(-0.150386 -0.0692271 0)
(-0.125204 -0.0713503 0)
(-0.101575 -0.06923 0)
(-0.0800279 -0.0646377 0)
(-0.0607818 -0.0587081 0)
(-0.0438495 -0.0521905 0)
(-0.0291624 -0.0455608 0)
(-0.0165879 -0.039119 0)
(-0.00596945 -0.0330441 0)
(0.00286053 -0.0274308 0)
(0.0100753 -0.0223179 0)
(0.0158451 -0.0177084 0)
(0.0203305 -0.0135806 0)
(0.0236805 -0.00989855 0)
(0.0260322 -0.00662217 0)
(0.0275087 -0.00371275 0)
(0.0282201 -0.00113466 0)
(0.0282649 0.00114499 0)
(0.027732 0.00315548 0)
(0.026703 0.00492064 0)
(0.0252526 0.006457 0)
(0.0234517 0.0077728 0)
(0.0213693 0.00886764 0)
(0.019076 0.0097293 0)
(0.0166459 0.0103274 0)
(0.0141575 0.0106024 0)
(0.011693 0.0104484 0)
(0.00931288 0.00968501 0)
(0.00706899 0.00802273 0)
(0.00467642 0.00494199 0)
(0.0026369 -0.000482875 0)
(-0.0792495 0.311828 0)
(-0.17317 0.224161 0)
(-0.220586 0.132027 0)
(-0.23773 0.0477097 0)
(-0.227974 -0.0123693 0)
(-0.206098 -0.0504888 0)
(-0.178838 -0.0713711 0)
(-0.150762 -0.080446 0)
(-0.123981 -0.0819953 0)
(-0.0994675 -0.0789788 0)
(-0.0775282 -0.0733696 0)
(-0.0582041 -0.0664055 0)
(-0.0413866 -0.0588862 0)
(-0.0269223 -0.0513124 0)
(-0.0146238 -0.0439966 0)
(-0.00429882 -0.0371234 0)
(0.00424323 -0.0307888 0)
(0.0111894 -0.0250299 0)
(0.0167181 -0.0198459 0)
(0.0209942 -0.0152103 0)
(0.0241681 -0.0110815 0)
(0.0263768 -0.00741339 0)
(0.027743 -0.00416149 0)
(0.0283755 -0.00128485 0)
(0.0283708 0.00125374 0)
(0.0278158 0.00348722 0)
(0.0267895 0.00544228 0)
(0.0253645 0.00713781 0)
(0.0236092 0.00858366 0)
(0.0215896 0.00977979 0)
(0.0193721 0.0107132 0)
(0.0170242 0.0113521 0)
(0.0146143 0.0116367 0)
(0.0122083 0.0114646 0)
(0.00984398 0.0106701 0)
(0.00753641 0.00900293 0)
(0.00500806 0.00605142 0)
(0.00270367 0.0010252 0)
(-0.0932865 0.368117 0)
(-0.196339 0.255948 0)
(-0.24344 0.146706 0)
(-0.257288 0.0480098 0)
(-0.241177 -0.020139 0)
(-0.213632 -0.0619891 0)
(-0.181956 -0.0839041 0)
(-0.150884 -0.0926273 0)
(-0.122259 -0.0932124 0)
(-0.0967347 -0.0890221 0)
(-0.074347 -0.0822115 0)
(-0.0549304 -0.0740975 0)
(-0.0382373 -0.0655078 0)
(-0.0240187 -0.0569529 0)
(-0.0120267 -0.0487463 0)
(-0.00202908 -0.0410714 0)
(0.00618974 -0.0340205 0)
(0.012832 -0.0276258 0)
(0.018085 -0.0218801 0)
(0.0221184 -0.0167506 0)
(0.0250845 -0.0121894 0)
(0.0271201 -0.00814398 0)
(0.0283469 -0.00456341 0)
(0.0288721 -0.00140134 0)
(0.0287901 0.00138396 0)
(0.0281852 0.00382921 0)
(0.0271335 0.00596417 0)
(0.025705 0.0078101 0)
(0.0239649 0.00937848 0)
(0.0219755 0.0106701 0)
(0.0197976 0.011672 0)
(0.0174915 0.0123523 0)
(0.0151147 0.0126527 0)
(0.0127178 0.0124765 0)
(0.0103186 0.0116755 0)
(0.00790822 0.0100374 0)
(0.00522464 0.00723996 0)
(0.00270188 0.00259085 0)
(-0.111072 0.433689 0)
(-0.227091 0.289518 0)
(-0.271741 0.160821 0)
(-0.280855 0.0458072 0)
(-0.256475 -0.0307379 0)
(-0.221989 -0.0758618 0)
(-0.185122 -0.0981445 0)
(-0.150635 -0.105911 0)
(-0.11996 -0.105072 0)
(-0.0933392 -0.0993907 0)
(-0.07048 -0.091172 0)
(-0.05098 -0.0817803 0)
(-0.0344362 -0.0720456 0)
(-0.0204957 -0.0624693 0)
(-0.00884509 -0.0533542 0)
(0.000789602 -0.0448736 0)
(0.00865048 -0.0371115 0)
(0.0149555 -0.0300913 0)
(0.0199012 -0.0237972 0)
(0.023662 -0.0181884 0)
(0.0263919 -0.0132097 0)
(0.0282276 -0.00880172 0)
(0.0292892 -0.00490685 0)
(0.029682 -0.00147283 0)
(0.0294981 0.00154686 0)
(0.0288186 0.00419278 0)
(0.0277168 0.00649783 0)
(0.0262593 0.0084858 0)
(0.0245076 0.01017 0)
(0.0225195 0.0115525 0)
(0.0203499 0.012621 0)
(0.0180509 0.013345 0)
(0.0156692 0.0136687 0)
(0.0132411 0.0135034 0)
(0.0107682 0.0127182 0)
(0.00822671 0.0111356 0)
(0.0053755 0.0085024 0)
(0.00266391 0.00418779 0)
(-0.13472 0.512413 0)
(-0.270557 0.324767 0)
(-0.307457 0.173517 0)
(-0.309231 0.0401478 0)
(-0.273982 -0.0449285 0)
(-0.231049 -0.0925781 0)
(-0.188179 -0.11435 0)
(-0.149893 -0.120423 0)
(-0.117016 -0.117627 0)
(-0.0892596 -0.110099 0)
(-0.0659418 -0.100247 0)
(-0.0463932 -0.0894415 0)
(-0.0300402 -0.0784839 0)
(-0.0164198 -0.0678456 0)
(-0.00515034 -0.0578046 0)
(0.00408469 -0.0485156 0)
(0.0115542 -0.0400482 0)
(0.0174917 -0.0324137 0)
(0.0221022 -0.0255854 0)
(0.0255647 -0.0195127 0)
(0.0280346 -0.014132 0)
(0.0296478 -0.00937666 0)
(0.0305227 -0.00518218 0)
(0.0307623 -0.00148995 0)
(0.030456 0.00175174 0)
(0.0296818 0.00458734 0)
(0.0285094 0.0070529 0)
(0.0270017 0.00917497 0)
(0.0252162 0.010969 0)
(0.0232056 0.0124385 0)
(0.0210184 0.013573 0)
(0.0186984 0.0143439 0)
(0.0162818 0.0146996 0)
(0.0137919 0.0145597 0)
(0.011217 0.0138104 0)
(0.00852537 0.0123039 0)
(0.00549903 0.0098361 0)
(0.00261415 0.0058024 0)
(-0.168492 0.608594 0)
(-0.335 0.361191 0)
(-0.353098 0.182776 0)
(-0.343078 0.0295704 0)
(-0.293653 -0.0636775 0)
(-0.240582 -0.112659 0)
(-0.190927 -0.132769 0)
(-0.14853 -0.136264 0)
(-0.113366 -0.130904 0)
(-0.0844904 -0.121141 0)
(-0.060767 -0.109418 0)
(-0.0412317 -0.0970594 0)
(-0.0251279 -0.0848011 0)
(-0.011879 -0.0730616 0)
(-0.00103475 -0.0620794 0)
(0.00776351 -0.0519812 0)
(0.0148102 -0.0428163 0)
(0.0203534 -0.0345805 0)
(0.0246056 -0.0272334 0)
(0.0277493 -0.0207132 0)
(0.0299405 -0.0149471 0)
(0.031314 -0.00986021 0)
(0.0319861 -0.00538109 0)
(0.0320571 -0.00144456 0)
(0.0316132 0.00200656 0)
(0.0307292 0.00502084 0)
(0.0294709 0.00763757 0)
(0.0278973 0.00988611 0)
(0.0260611 0.0117843 0)
(0.0240097 0.0133379 0)
(0.0217852 0.0145383 0)
(0.019423 0.0153601 0)
(0.0169495 0.0157565 0)
(0.0143762 0.0156562 0)
(0.0116811 0.0149606 0)
(0.00882863 0.0135462 0)
(0.00562387 0.0112405 0)
(0.00257137 0.007432 0)
(-0.219427 0.737357 0)
(-0.42966 0.398272 0)
(-0.411113 0.184924 0)
(-0.382382 0.0120453 0)
(-0.315045 -0.0880975 0)
(-0.250161 -0.136619 0)
(-0.193085 -0.153608 0)
(-0.146394 -0.15349 0)
(-0.108955 -0.144899 0)
(-0.0790428 -0.132488 0)