/*--------------------------------*- C++ -*----------------------------------*\
  =========                 |
  \\      /  F ield         | OpenFOAM: The Open Source CFD Toolbox
   \\    /   O peration     | Website:  https://openfoam.org
    \\  /    A nd           | Version:  7
     \\/     M anipulation  |
\*---------------------------------------------------------------------------*/
FoamFile
{
    version     2.0;
    format      ascii;
    class       volScalarField;
    location    "0.35";
    object      alpha.water;
}
// * * * * * * * * * * * * * * * * * * * * * * * * * * * * * * * * * * * * * //

dimensions      [0 0 0 0 0 0 0];

internalField   nonuniform List<scalar> 
9072
(
1
1
1
1
1
1
1
1
1
1
1
1
1
1
1
1
1
1
1
1
1
1
1
1
1
1
1
1
1
1
1
1
1
1
1
1
1
1
1
1
1
0.924361
0.893955
0.991212
0.996462
0.996396
1
1
1
1
1
1
1
1
1
1
1
1
1
1
1
1
1
1
1
1
1
1
1
1
1
1
1
1
1
1
1
1
1
1
1
1
1
1
1
1
1
0.983924
0.893882
0.930391
0.996609
0.996615
1
1
1
1
1
1
1
1
1
1
1
1
1
1
1
1
1
1
1
1
1
1
1
1
1
1
1
1
1
1
1
1
1
1
1
1
1
1
1
1
1
0.999987
0.893882
0.89409
0.995709
0.999147
1
1
1
1
1
1
1
1
1
1
1
1
1
1
1
1
1
1
1
1
1
1
1
1
1
1
1
1
1
1
1
1
1
1
1
1
1
1
1
1
1
1
0.939665
0.908915
0.988913
0.999536
1
1
1
1
1
1
1
1
1
1
1
1
1
1
1
1
1
1
1
1
1
1
1
1
1
1
1
1
1
1
1
1
1
1
1
1
1
1
1
1
1
1
0.999549
0.993667
0.998342
0.999536
1
1
1
1
1
1
1
1
1
1
1
1
1
1
1
1
1
1
1
1
1
1
1
1
1
1
1
1
1
1
1
1
1
1
1
1
1
1
1
1
1
1
1
0.999981
0.999989
0.999187
1
1
1
1
1
1
1
1
1
1
1
1
1
1
1
1
1
1
1
1
1
1
1
1
1
1
1
1
1
1
1
1
1
1
1
1
1
1
1
1
1
1
1
0.999998
0.999992
0.999141
1
1
1
1
1
1
1
1
1
1
1
1
1
1
1
1
1
1
1
1
1
1
1
1
1
1
1
1
1
1
1
1
1
1
1
1
1
1
1
1
1
1
1
1
1
0.999147
1
1
1
1
1
1
1
1
1
1
1
1
1
1
1
1
1
1
1
1
1
1
1
1
1
1
1
1
1
1
1
1
1
1
1
1
1
1
1
1
1
1
1
1
1
0.999175
1
1
1
1
1
1
1
1
1
1
1
1
1
1
1
1
1
1
1
1
1
1
1
1
1
1
1
1
1
1
1
1
1
1
1
1
1
1
1
1
1
1
1
1
1
0.999208
1
1
1
1
1
1
1
1
1
1
1
1
1
1
1
1
1
1
1
1
1
1
1
1
1
1
1
1
1
1
1
1
1
1
1
1
1
1
1
1
1
1
1
1
1
0.999225
1
1
1
1
1
1
1
1
1
1
1
1
1
1
1
1
1
1
1
1
1
1
1
1
1
1
1
1
1
1
1
1
1
1
1
1
1
1
1
1
1
1
1
1
1
0.999228
1
1
1
1
1
1
1
1
1
1
1
1
1
1
1
1
1
1
1
1
1
1
1
1
1
1
1
1
1
1
1
1
1
1
1
1
1
1
1
1
1
1
1
1
1
0.99923
1
1
1
1
1
1
1
1
1
1
1
1
1
1
1
1
1
1
1
1
1
1
1
1
1
1
1
1
1
1
1
1
1
1
1
1
1
1
1
1
1
1
1
1
1
0.999261
1
1
1
1
1
1
1
1
1
1
1
1
1
1
1
1
1
1
1
1
1
1
1
1
1
1
1
1
1
1
1
1
1
1
1
1
1
1
1
1
1
1
1
1
1
0.999676
1
1
1
1
1
1
1
1
1
1
1
1
1
1
1
1
1
1
1
1
1
1
1
1
1
1
1
1
1
1
1
1
1
1
1
1
1
1
1
1
1
1
1
1
1
0.999821
5.42129e-34
3.85317e-33
4.59868e-33
1.02702e-33
8.03069e-35
6.56224e-36
2.78971e-37
4.55696e-39
2.24074e-40
2.17422e-40
1.67025e-40
8.37603e-41
2.34309e-41
3.3309e-42
2.24896e-43
7.51399e-45
1.77037e-46
1.77403e-48
1.63939e-50
1.27967e-52
1.09417e-54
1.21002e-56
4.88942e-58
3.06448e-58
1.11299e-59
2.53844e-61
5.54443e-63
1.04109e-64
1.6672e-66
2.23839e-68
2.47127e-70
2.17861e-72
1.46935e-74
7.11563e-77
2.23628e-79
3.832e-82
2.43654e-85
3.36754e-86
2.3013e-32
9.17814e-32
1.14525e-31
6.60828e-32
1.10963e-32
1.2465e-33
7.1942e-35
1.35679e-36
6.86562e-39
7.70036e-40
1.02978e-39
7.08588e-40
8.95777e-41
2.4159e-41
7.1377e-42
1.14463e-42
6.22737e-44
1.25653e-46
1.77377e-48
1.63914e-50
1.27946e-52
1.09417e-54
1.21002e-56
4.88942e-58
7.21657e-58
2.57289e-59
4.3364e-61
7.61547e-63
1.13852e-64
1.43355e-66
1.48736e-68
1.23343e-70
7.8174e-73
3.53308e-75
1.01322e-77
1.47999e-80
7.61129e-84
3.49197e-86
1.19049e-30
3.96261e-30
5.29212e-30
4.08421e-30
7.82847e-31
1.03006e-31
6.62872e-33
1.47466e-34
8.48827e-37
2.33161e-37
2.91399e-37
2.24328e-37
6.28104e-38
1.63983e-38
3.26293e-39
3.23983e-40
1.52806e-41
4.24368e-44
6.47224e-46
6.41799e-48
5.19835e-50
4.47483e-52
4.49018e-54
5.25504e-56
1.17248e-57
3.17966e-59
1.02856e-59
1.77538e-61
2.21516e-63
2.60951e-65
2.54955e-67
1.99733e-69
1.19326e-71
4.98991e-74
1.21425e-76
8.72438e-80
3.583e-83
1.99385e-84
3.15767e-29
1.18237e-28
1.7437e-28
1.64195e-28
3.69378e-29
5.58052e-30
4.04978e-31
1.06774e-32
1.00652e-35
3.63722e-35
4.75035e-35
3.50575e-35
1.26348e-35
3.37002e-36
5.7213e-37
5.01964e-38
2.27223e-39
8.77413e-42
1.18785e-43
1.26271e-45
1.06393e-47
9.2122e-50
9.18755e-52
1.0368e-53
1.27573e-55
1.78196e-57
2.62035e-58
4.48956e-60
4.68256e-62
4.98905e-64
4.5421e-66
3.3151e-68
1.78559e-70
5.81612e-73
1.88641e-75
4.22981e-78
4.01393e-81
5.81594e-83
5.75892e-28
2.68003e-27
4.56689e-27
4.77641e-27
1.27659e-27
2.19658e-28
1.78525e-29
5.6117e-31
1.83989e-33
4.17536e-33
5.39386e-33
3.86252e-33
1.50757e-33
3.9768e-34
6.3415e-35
5.30451e-36
2.39505e-37
1.33623e-39
1.45796e-41
1.54519e-43
1.37863e-45
1.28651e-47
1.27588e-49
1.42797e-51
1.73491e-53
2.28584e-55
1.71822e-56
2.51487e-58
2.6627e-60
2.65612e-62
2.24072e-64
1.44875e-66
9.25509e-69
5.2593e-71
2.15836e-73
5.5705e-76
6.6214e-79
4.03992e-81
8.26871e-27
4.91854e-26
9.73682e-26
1.10436e-25
3.4806e-26
6.87055e-27
6.4078e-28
2.38666e-29
3.11644e-31
4.93899e-31
4.92956e-31
3.25431e-31
1.29154e-31
3.3429e-32
5.15638e-33
4.23846e-34
1.9458e-35
1.27314e-37
1.33646e-39
1.32183e-41
1.2158e-43
1.21425e-45
1.3484e-47
1.52259e-49
1.83976e-51
2.40138e-53
1.42688e-54
1.97994e-56
2.07727e-58
1.97525e-60
1.52342e-62
1.19344e-64
8.95179e-67
5.31508e-69
2.31759e-71
6.57911e-74
9.09913e-77
6.59708e-79
9.88706e-26
7.66713e-25
1.78417e-24
2.21139e-24
8.56873e-25
2.03946e-25
2.65775e-26
1.63309e-27
5.49727e-28
1.19199e-28
3.926e-29
2.20998e-29
8.64083e-30
2.18926e-30
3.31136e-31
2.71691e-32
1.28298e-33
9.02638e-36
9.04389e-38
9.57316e-40
9.1546e-42
9.29568e-44
1.04058e-45
1.25855e-47
1.62879e-49
2.11538e-51
1.09959e-52
1.49053e-54
1.5263e-56
1.36988e-58
1.10229e-60
1.01274e-62
7.83803e-65
4.83019e-67
2.22018e-69
6.77545e-72
1.03217e-74
9.06099e-77
1.01977e-24
1.10688e-23
3.22963e-23
4.56458e-23
2.53524e-23
8.12609e-24
2.06241e-24
8.06629e-25
1.939e-25
1.35731e-26
2.55814e-27
1.24912e-27
4.73139e-28
1.17337e-28
1.75456e-29
1.4509e-30
7.11302e-32
5.15725e-34
5.29216e-36
6.03141e-38
6.05008e-40
6.30113e-42
7.14989e-44
8.7315e-46
1.14216e-47
1.63591e-49
7.77114e-51
1.03663e-52
1.03174e-54
8.61461e-57
8.42534e-59
7.9635e-61
6.3319e-63
4.0465e-65
1.94803e-67
6.30148e-70
1.03343e-72
1.02724e-74
1.01349e-23
1.78832e-22
7.11517e-22
1.18574e-21
1.16706e-21
4.62794e-22
2.039e-22
7.32857e-23
7.17289e-24
4.55581e-25
1.20764e-25
5.95704e-26
2.18239e-26
5.30639e-27
7.8919e-28
6.62278e-29
3.36762e-30
2.48971e-32
2.73116e-34
3.36852e-36
3.57148e-38
3.8479e-40
4.46049e-42
5.53107e-44
7.33185e-46
1.13695e-47
5.10623e-49
6.7434e-51
6.50162e-53
5.51245e-55
6.06463e-57
5.8895e-59
4.81586e-61
3.18657e-63
1.59923e-65
5.43317e-68
9.44052e-71
1.02786e-72
1.0396e-22
2.96834e-21
1.6363e-20
3.61432e-20
4.40639e-20
1.58109e-20
6.49292e-21
9.66196e-22
6.93319e-23
8.9586e-24
4.85628e-24
2.42768e-24
8.63072e-25
2.06348e-25
3.06953e-26
2.63033e-27
1.36483e-28
1.04901e-30
1.26181e-32
1.69168e-34
1.90806e-36
2.14249e-38
2.55624e-40
3.23981e-42
4.37587e-44
6.95504e-46
3.15329e-47
4.15546e-49
3.86422e-51
3.67973e-53
4.16039e-55
4.14515e-57
3.49187e-59
2.38992e-61
1.24633e-63
4.41908e-66
8.05071e-69
9.38357e-71
1.32089e-21
4.81451e-20
2.76831e-19
6.05392e-19
7.21054e-19
1.79522e-19
4.04977e-20
3.96523e-21
4.86577e-22
2.51772e-22
1.79645e-22
8.62087e-23
2.96736e-23
6.98887e-24
1.04451e-24
9.19337e-26
4.80659e-27
3.92271e-29
5.28107e-31
7.72714e-33
9.3225e-35
1.09769e-36
1.35712e-38
1.76973e-40
2.45218e-42
4.00873e-44
1.84824e-45
2.4402e-47
2.18698e-49
2.35106e-51
2.7385e-53
2.80383e-55
2.43532e-57
1.72329e-59
9.31813e-62
3.4337e-64
6.51433e-67
7.99687e-69
1.74376e-20
6.10163e-19
2.91489e-18
5.04616e-18
3.99649e-18
7.85303e-19
9.47605e-20
1.53126e-20
9.79224e-21
9.39786e-21
6.17941e-21
2.80624e-21
9.25777e-22
2.13461e-22
3.1912e-23
2.88142e-24
1.49381e-25
1.31795e-27
2.02192e-29
3.24105e-31
4.20276e-33
5.21367e-35
6.7152e-37
9.06761e-39
1.29848e-40
2.19274e-42
1.03485e-43
1.37418e-45
1.18606e-47
1.4467e-49
1.74058e-51
1.83442e-53
1.64457e-55
1.2032e-57
6.73716e-60
2.57329e-62
5.0624e-65
6.46643e-67
2.06422e-19
5.05492e-18
1.73468e-17
2.41177e-17
9.2265e-18
1.71057e-18
3.37691e-19
3.11272e-19
4.43738e-19
3.62183e-19
2.18249e-19
9.26196e-20
2.90521e-20
6.49523e-21
9.61147e-22
8.79407e-23
4.33973e-24
3.99611e-26
7.14072e-28
1.25887e-29
1.76287e-31
2.31177e-33
3.10997e-35
4.3674e-37
6.51046e-39
1.14061e-40
5.54505e-42
7.43438e-44
6.35293e-46
8.59615e-48
1.07017e-49
1.16354e-51
1.07809e-53
8.15871e-56
4.72814e-58
1.86911e-60
3.80394e-63
5.02176e-65
1.63738e-18
2.58556e-17
6.56601e-17
7.96915e-17
2.62105e-17
1.16169e-17
9.41881e-18
1.38458e-17
1.7966e-17
1.19787e-17
6.79041e-18
2.75698e-18
8.58498e-19
1.95139e-19
3.01178e-20
2.91275e-21
1.39968e-22
1.1181e-24
2.34495e-26
4.56669e-28
6.94656e-30
9.6647e-32
1.35761e-33
1.981e-35
3.08384e-37
5.62932e-39
2.82737e-40
3.84963e-42
3.51199e-44
4.92551e-46
6.34616e-48
7.14136e-50
6.84958e-52
5.36655e-54
3.21921e-56
1.31644e-58
2.76942e-61
3.77078e-63
6.51445e-18
1.23841e-16
4.01933e-16
6.80962e-16
3.45026e-16
2.19263e-16
1.64238e-16
2.60779e-16
2.33011e-16
1.44582e-16
7.69643e-17
3.07476e-17
9.85422e-18
2.39761e-18
4.03114e-19
4.3707e-20
2.52921e-21
4.40616e-23
7.21643e-25
1.56139e-26
2.60351e-28
3.87656e-30
5.70368e-32
8.63033e-34
1.40818e-35
2.6885e-37
1.39964e-38
1.94708e-40
1.90138e-42
2.77263e-44
3.70779e-46
4.32894e-48
4.30637e-50
3.4978e-52
2.17355e-54
9.19791e-57
2.00147e-59
2.74334e-61
1.16688e-16
1.75346e-15
3.77107e-15
4.32915e-15
2.39797e-15
3.45508e-16
3.54931e-16
8.01179e-16
5.57287e-16
3.53521e-16
1.80679e-16
7.1237e-17
2.25952e-17
5.51091e-18
9.22525e-19
1.05741e-19
8.27185e-21
5.03551e-22
2.08812e-23
5.05378e-25
9.34806e-27
1.51218e-28
2.35549e-30
3.67759e-32
6.20044e-34
1.24262e-35
6.65756e-37
9.62676e-39
1.00737e-40
1.53124e-42
2.13125e-44
2.58739e-46
2.67436e-48
2.25513e-50
1.45317e-52
6.36741e-55
1.43168e-57
1.98153e-59
1
1
1
1
1
1
1
1
1
1
1
1
1
1
1
1
1
1
1
1
1
1
1
1
1
1
1
1
1
1
1
1
1
1
1
1
1
1
1
1
1
1
1
1
1
0.999717
1
1
1
1
1
1
1
1
1
1
1
1
1
1
1
1
1
1
1
1
1
1
1
1
1
1
1
1
1
1
1
1
1
1
1
1
1
1
1
1
1
1
1
1
1
0.999713
1
1
1
1
1
1
1
1
1
1
1
1
1
1
1
1
1
1
1
1
1
1
1
1
1
1
1
1
1
1
1
1
1
1
1
1
1
1
1
1
1
1
1
1
1
0.999788
1
1
1
1
1
1
1
1
1
1
1
1
1
1
1
1
1
1
1
1
1
1
1
1
1
1
1
1
1
1
1
1
1
1
1
1
1
1
1
1
1
1
1
1
1
0.999996
1
1
1
1
1
1
1
1
1
1
1
1
1
1
1
1
1
1
1
1
1
1
1
1
1
1
1
1
1
1
1
1
1
1
1
1
1
1
1
1
1
1
1
1
1
1
1
0.999999
0.999999
0.999999
0.999999
0.999999
0.999999
0.999999
0.999999
0.999999
0.999999
0.999999
0.999999
0.999999
0.999999
0.999999
0.999999
0.999999
0.999998
0.999998
0.999998
0.999998
0.999998
0.999998
0.999998
0.999998
0.999999
0.999999
0.999999
1
1
1
1
1
1
1
1
1
1
1
1
1
1
1
1
1
0.999994
0.999978
0.999979
0.999981
0.99998
0.99998
0.999979
0.999978
0.999977
0.999976
0.999975
0.999974
0.999973
0.999973
0.999973
0.999972
0.99997
0.999968
0.999965
0.999962
0.999959
0.999956
0.999952
0.999947
0.999947
0.999953
0.99996
0.999962
0.999957
0.999963
0.999973
0.999991
0.999999
1
1
1
1
1
1
1
1
1
1
1
1
1
0.999859
0.999589
0.99961
0.999636
0.999624
0.999602
0.999581
0.999561
0.999538
0.999512
0.999489
0.999466
0.999432
0.999156
0.998774
0.998097
0.996755
0.99471
0.991799
0.988045
0.983726
0.978298
0.970774
0.961103
0.954535
0.956226
0.957596
0.948179
0.915475
0.910224
0.924055
0.960452
0.994208
0.999958
0.99999
1
1
1
1
1
1
1
1
1
1
1
0.911211
0.814966
0.811927
0.804619
0.778267
0.749686
0.726685
0.70666
0.687726
0.669393
0.651863
0.634502
0.616597
0.598385
0.575661
0.550246
0.522519
0.492382
0.460957
0.431481
0.404227
0.375843
0.343617
0.309801
0.29174
0.299244
0.304463
0.276629
0.202965
0.190146
0.213266
0.307621
0.516753
0.742394
0.875949
0.939092
0.98002
0.999998
1
1
1
1
1
1
1
1
0.194555
0.110773
0.104426
0.0965291
0.076995
0.0595192
0.0473922
0.037981
0.0298292
0.022612
0.0163073
0.0105077
0.0049773
2.54643e-05
-3.12332e-10
-1.91396e-13
-3.51109e-17
-6.88629e-21
-4.06486e-25
6.6425e-50
1.40102e-26
-1.05967e-10
-9.04006e-11
-1.0692e-10
-8.71124e-11
-7.5558e-11
-5.91548e-11
-4.649e-11
-3.04257e-11
-1.77985e-11
-7.95919e-12
-2.2152e-12
0
0.0374441
0.132985
0.236484
0.32871
0.445594
0.65863
0.948127
0.999999
1
1
1
1
1
-2.64742e-13
-6.92414e-14
-1.05869e-14
-1.68039e-15
-1.86585e-15
-3.76811e-15
-1.1989e-10
-1.3017e-09
-4.15202e-09
-1.1882e-08
-2.37038e-08
-3.48044e-08
-3.8983e-08
-3.62843e-08
-3.03529e-08
-2.27657e-08
-1.59493e-08
-1.08247e-08
-7.2751e-09
-4.92219e-09
-3.40629e-09
-2.39187e-09
-1.70149e-09
-1.25542e-09
-9.27501e-10
-6.80101e-10
-4.90587e-10
-3.40015e-10
-2.17193e-10
-1.19854e-10
-5.20883e-11
-1.26488e-11
0
0
-1.24993e-11
-6.00478e-11
-8.53641e-11
0.000433477
0.0129306
0.074123
0.190129
0.415874
0.825361
0.999996
0.999999
1
-2.01477e-13
-7.491e-14
-1.64488e-14
-3.43102e-15
-5.71033e-15
-1.19585e-14
-2.76854e-10
-2.67894e-09
-7.48285e-09
-2.03478e-08
-4.0172e-08
-5.74275e-08
-6.43389e-08
-6.05504e-08
-5.01209e-08
-3.78129e-08
-2.68057e-08
-1.8348e-08
-1.24427e-08
-8.52651e-09
-5.96735e-09
-4.27253e-09
-3.11678e-09
-2.3032e-09
-1.71488e-09
-1.27811e-09
-9.4132e-10
-6.67771e-10
-4.37228e-10
-2.44582e-10
-9.96127e-11
-4.05029e-12
-2.59418e-12
-1.78548e-12
1.82198e-15
2.08528e-12
-2.07316e-10
-3.61002e-10
-2.13592e-09
2.19175e-06
9.36593e-06
0.000714976
0.0543321
0.180894
0.355418
0.640409
-3.09848e-14
-2.55938e-14
-3.21712e-15
-2.37643e-15
-8.77228e-15
-1.89013e-14
-2.33362e-10
-2.01824e-09
-5.42916e-09
-1.56838e-08
-3.24673e-08
-4.81234e-08
-5.57212e-08
-5.39636e-08
-4.59098e-08
-3.56326e-08
-2.6046e-08
-1.84441e-08
-1.29649e-08
-9.21024e-09
-6.6724e-09
-4.93245e-09
-3.70521e-09
-2.81483e-09
-2.15376e-09
-1.65003e-09
-1.24943e-09
-9.10849e-10
-6.09154e-10
-3.36102e-10
-1.04168e-10
8.59577e-13
5.61104e-09
1.34034e-08
1.09535e-08
3.31651e-09
7.8535e-11
-7.53291e-11
-1.84077e-10
-2.10235e-07
-3.24617e-07
3.54894e-07
1.18754e-05
3.39785e-05
8.3906e-05
0.0243662
-3.68111e-15
-3.58758e-15
-7.97987e-16
-2.06527e-15
-9.00801e-15
-2.00937e-14
-7.50611e-11
-5.91129e-10
-1.57383e-09
-6.18557e-09
-1.49664e-08
-2.4106e-08
-2.95401e-08
-2.99823e-08
-2.66728e-08
-2.16975e-08
-1.67132e-08
-1.25566e-08
-9.4144e-09
-7.14043e-09
-5.49981e-09
-4.2905e-09
-3.37544e-09
-2.67049e-09
-2.12091e-09
-1.68328e-09
-1.31766e-09
-9.89133e-10
-6.72489e-10
-3.58385e-10
-5.60272e-11
2.71451e-09
3.45773e-08
4.08774e-08
4.09082e-08
2.83482e-08
3.9211e-09
3.5302e-27
3.75139e-10
-2.98505e-10
-8.10746e-10
2.46083e-09
-8.37217e-07
-6.66258e-07
2.0011e-07
3.98855e-06
-8.80645e-16
-1.14499e-15
-3.54309e-16
-1.63256e-15
-7.7562e-15
-1.81362e-14
-3.58328e-14
-8.89987e-14
-8.21593e-12
-1.15218e-09
-3.85868e-09
-7.05404e-09
-9.35457e-09
-1.01554e-08
-9.69432e-09
-8.56102e-09
-7.26747e-09
-6.09007e-09
-5.10712e-09
-4.29664e-09
-3.61393e-09
-3.02774e-09
-2.52498e-09
-2.10089e-09
-1.74768e-09
-1.44879e-09
-1.17989e-09
-9.15741e-10
-6.35296e-10
-3.28777e-10
-3.80816e-11
2.52075e-08
4.07877e-08
4.09053e-08
4.09115e-08
4.09053e-08
2.36952e-08
1.21114e-09
1.26102e-10
5.12914e-11
3.89107e-11
2.5843e-11
5.63029e-11
5.00424e-09
1.65468e-08
5.43271e-08
3.114e-16
-1.49933e-16
-1.38228e-16
-1.17947e-15
-6.09277e-15
-1.51045e-14
-3.29491e-14
-9.10734e-14
-1.21056e-12
-1.61699e-10
-5.6771e-10
-1.10555e-09
-1.60256e-09
-1.96997e-09
-2.21292e-09
-2.36877e-09
-2.45917e-09
-2.48239e-09
-2.42933e-09
-2.30048e-09
-2.11226e-09
-1.89254e-09
-1.67048e-09
-1.46647e-09
-1.28643e-09
-1.12227e-09
-9.56719e-10
-7.7228e-10
-5.54446e-10
-2.9396e-10
0
1.42952e-08
3.95643e-08
4.07939e-08
4.09125e-08
2.77549e-08
4.20471e-09
7.0801e-11
5.19912e-11
4.53067e-11
4.53067e-11
4.4467e-11
5.1747e-11
1.17658e-10
5.408e-10
5.17639e-09
3.43917e-16
-2.13013e-18
-6.52546e-17
-8.32624e-16
-4.62229e-15
-1.22455e-14
-3.01446e-14
-9.31672e-14
-3.18547e-13
-9.70143e-13
-1.05047e-11
-5.12434e-11
-1.50038e-10
-3.19679e-10
-5.46644e-10
-7.93973e-10
-1.01603e-09
-1.1756e-09
-1.25514e-09
-1.25905e-09
-1.20822e-09
-1.13005e-09
-1.048e-09
-9.74294e-10
-9.0796e-10
-8.3812e-10
-7.49799e-10
-6.32244e-10
-4.78723e-10
-2.92472e-10
-1.31135e-10
4.18258e-10
1.09353e-08
1.46915e-08
6.05675e-09
7.53066e-11
1.0037e-11
6.23365e-11
7.80184e-11
7.50215e-11
6.17883e-11
5.35405e-11
5.44835e-11
8.22634e-11
2.07206e-10
3.82125e-10
1.91536e-16
1.61351e-17
-3.71029e-17
-5.89008e-16
-3.47723e-15
-9.93419e-15
-2.792e-14
-9.48543e-14
-3.27575e-13
-9.73318e-13
-6.63964e-12
-3.01916e-11
-8.72113e-11
-1.84429e-10
-3.1257e-10
-4.49069e-10
-5.67921e-10
-6.50182e-10
-6.90113e-10
-6.95282e-10
-6.81632e-10
-6.65741e-10
-6.57558e-10
-6.56759e-10
-6.54088e-10
-6.3647e-10
-5.92583e-10
-5.18666e-10
-4.18338e-10
-2.92002e-10
-1.82721e-10
-1.08404e-10
-6.28511e-11
-3.51121e-11
-1.75449e-11
-5.44992e-12
9.15457e-12
4.52514e-11
9.25409e-11
1.36149e-10
1.73754e-10
2.07451e-10
2.38816e-10
2.84501e-10
2.95196e-10
3.09917e-10
1.69009e-17
4.16761e-19
-2.70846e-17
-4.22071e-16
-2.61441e-15
-8.14747e-15
-2.60678e-14
-9.45895e-14
-3.24846e-13
-9.37203e-13
-4.63266e-12
-1.90122e-11
-5.25954e-11
-1.07654e-10
-1.76954e-10
-2.46887e-10
-3.04144e-10
-3.41631e-10
-3.60966e-10
-3.7099e-10
-3.83145e-10
-4.05445e-10
-4.37941e-10
-4.72336e-10
-4.95898e-10
-4.97241e-10
-4.70733e-10
-4.18474e-10
-3.49185e-10
-2.74183e-10
-2.03329e-10
-1.42531e-10
-9.37415e-11
-5.61552e-11
-2.76597e-11
-5.92749e-12
2.34744e-11
6.91499e-11
1.15367e-10
1.61192e-10
2.09124e-10
2.61955e-10
3.23968e-10
3.94083e-10
4.69963e-10
5.56731e-10
8.04684e-19
-1.29195e-18
-2.08617e-17
-3.0576e-16
-1.96539e-15
-6.75118e-15
-2.41551e-14
-9.08222e-14
-3.06121e-13
-8.53932e-13
-3.41353e-12
-1.25012e-11
-3.23461e-11
-6.27012e-11
-9.81227e-11
-1.3105e-10
-1.56053e-10
-1.72686e-10
-1.85805e-10
-2.03322e-10
-2.32077e-10
-2.73362e-10
-3.20835e-10
-3.62711e-10
-3.87012e-10
-3.86592e-10
-3.61289e-10
-3.16804e-10
-2.61718e-10
-2.04426e-10
-1.51155e-10
-1.05361e-10
-6.80312e-11
-3.85409e-11
-1.54169e-11
2.85741e-12
3.75414e-11
7.62043e-11
1.0998e-10
1.4099e-10
1.74213e-10
2.1286e-10
2.58775e-10
3.13524e-10
3.79592e-10
4.61956e-10
2.63679e-20
-1.30257e-18
-1.63792e-17
-2.23392e-16
-1.47536e-15
-5.60446e-15
-2.18e-14
-8.2766e-14
-2.71081e-13
-7.28522e-13
-2.50148e-12
-8.16741e-12
-1.94744e-11
-3.52298e-11
-5.18838e-11
-6.5986e-11
-7.65452e-11
-8.60394e-11
-9.97122e-11
-1.23212e-10
-1.59154e-10
-2.0416e-10
-2.48896e-10
-2.81882e-10
-2.94674e-10
-2.8503e-10
-2.56634e-10
-2.1651e-10
-1.72116e-10
-1.29354e-10
-9.18163e-11
-6.09647e-11
-3.67073e-11
-1.81366e-11
-4.05497e-12
1.15783e-11
3.0976e-11
4.24724e-11
5.04855e-11
5.86709e-11
6.8493e-11
8.06979e-11
9.5956e-11
1.15395e-10
1.40527e-10
1.7495e-10
-1.50762e-20
-9.88428e-19
-1.30672e-17
-1.64052e-16
-1.10249e-15
-4.59505e-15
-1.88321e-14
-7.07897e-14
-2.23668e-13
-5.773e-13
-1.74753e-12
-5.07991e-12
-1.10507e-11
-1.84892e-11
-2.55372e-11
-3.12407e-11
-3.66248e-11
-4.47936e-11
-5.992e-11
-8.51132e-11
-1.19779e-10
-1.5812e-10
-1.90746e-10
-2.08987e-10
-2.08844e-10
-1.91989e-10
-1.63869e-10
-1.30916e-10
-9.84575e-11
-6.98542e-11
-4.65608e-11
-2.86679e-11
-1.55311e-11
-6.17153e-12
5.89584e-14
7.34208e-12
1.08426e-11
1.26331e-11
1.42382e-11
1.61313e-11
1.84541e-11
2.127e-11
2.47041e-11
2.90191e-11
3.45959e-11
4.23169e-11
-2.13112e-20
-7.33632e-19
-1.04108e-17
-1.20252e-16
-8.1457e-16
-3.65797e-15
-1.53515e-14
-5.63383e-14
-1.70796e-13
-4.22156e-13
-1.13862e-12
-2.93567e-12
-5.77854e-12
-8.90531e-12
-1.16404e-11
-1.42346e-11
-1.82358e-11
-2.62608e-11
-4.10118e-11
-6.3513e-11
-9.13141e-11
-1.18235e-10
-1.36808e-10
-1.4206e-10
-1.33696e-10
-1.15366e-10
-9.22564e-11
-6.89447e-11
-4.8394e-11
-3.19165e-11
-1.96208e-11
-1.09628e-11
-5.20943e-12
-1.6209e-12
4.62389e-13
2.1732e-12
2.73873e-12
2.99604e-12
3.2343e-12
3.5017e-12
3.79592e-12
4.11606e-12
4.47832e-12
4.91913e-12
5.48815e-12
6.28619e-12
-1.97962e-20
-5.52549e-19
-8.1139e-18
-8.698e-17
-5.8849e-16
-2.78026e-15
-1.1678e-14
-4.14316e-14
-1.20008e-13
-2.83252e-13
-6.84867e-13
-1.56033e-12
-2.76424e-12
-3.94474e-12
-5.05154e-12
-6.69848e-12
-1.02393e-11
-1.74799e-11
-2.98375e-11
-4.70078e-11
-6.59664e-11
-8.1563e-11
-8.9019e-11
-8.65451e-11
-7.59066e-11
-6.0855e-11
-4.51005e-11
-3.11493e-11
-2.01306e-11
-1.21537e-11
-6.77667e-12
-3.37938e-12
-1.39052e-12
-3.22345e-13
2.06337e-13
4.8508e-13
5.17183e-13
5.19806e-13
5.20061e-13
5.19434e-13
5.18154e-13
5.17578e-13
5.19357e-13
5.25604e-13
5.40683e-13
5.71367e-13
-1.60074e-20
-4.12752e-19
-6.07328e-18
-6.11667e-17
-4.09845e-16
-1.98798e-15
-8.21615e-15
-2.79833e-14
-7.71713e-14
-1.73444e-13
-3.78139e-13
-7.61009e-13
-1.21656e-12
-1.65112e-12
-2.2353e-12
-3.53564e-12
-6.4997e-12
-1.21962e-11
-2.11561e-11
-3.2485e-11
-4.34998e-11
-5.06857e-11
-5.16761e-11
-4.66188e-11
-3.77465e-11
-2.78179e-11
-1.88746e-11
-1.18821e-11
-6.96252e-12
-3.7858e-12
-1.8833e-12
-8.26033e-13
-2.90251e-13
-5.11163e-14
4.13407e-14
7.13261e-14
6.97792e-14
6.4779e-14
5.85067e-14
5.27832e-14
4.78752e-14
4.31594e-14
3.93347e-14
3.48041e-14
3.32081e-14
3.57793e-14
-1.19403e-20
-2.9748e-19
-4.30231e-18
-4.1151e-17
-2.7096e-16
-1.32068e-15
-5.30505e-15
-1.72557e-14
-4.51692e-14
-9.64052e-14
-1.90836e-13
-3.41465e-13
-5.02321e-13
-6.90362e-13
-1.08969e-12
-2.09529e-12
-4.27872e-12
-8.17847e-12
-1.38391e-11
-2.03152e-11
-2.56973e-11
-2.80181e-11
-2.65003e-11
-2.2003e-11
-1.62809e-11
-1.08932e-11
-6.66802e-12
-3.76369e-12
-1.96516e-12
-9.45903e-13
-4.13841e-13
-1.58978e-13
-4.88968e-14
-7.52025e-15
5.10025e-15
7.76479e-15
6.98909e-15
5.67185e-15
4.54338e-15
3.67821e-15
2.98994e-15
2.36036e-15
1.831e-15
2.10352e-15
3.64778e-15
8.49739e-15
-8.31165e-21
-2.02713e-19
-2.85026e-18
-2.60735e-17
-1.67532e-16
-8.0635e-16
-3.12035e-15
-9.65402e-15
-2.39248e-14
-4.83786e-14
-8.77251e-14
-1.42018e-13
-2.01428e-13
-3.0695e-13
-5.88396e-13
-1.27881e-12
-2.67949e-12
-5.00928e-12
-8.12709e-12
-1.1316e-11
-1.34575e-11
-1.36693e-11
-1.19256e-11
-9.0392e-12
-6.0438e-12
-3.61779e-12
-1.96321e-12
-9.74693e-13
-4.44852e-13
-1.86345e-13
-7.08464e-14
-2.36528e-14
-6.32173e-15
-8.74715e-16
4.93136e-16
6.2766e-16
5.00562e-16
3.49248e-16
2.46141e-16
1.80245e-16
1.12103e-16
1.23996e-16
2.48329e-16
8.78489e-16
4.01847e-15
1.99943e-14
-5.3902e-21
-1.28697e-19
-1.74698e-18
-1.5331e-17
-9.55119e-17
-4.47871e-16
-1.65875e-15
-4.86614e-15
-1.13951e-14
-2.18036e-14
-3.66567e-14
-5.5477e-14
-8.1602e-14
-1.47042e-13
-3.25881e-13
-7.3789e-13
-1.51978e-12
-2.7324e-12
-4.22177e-12
-5.55759e-12
-6.19969e-12
-5.85052e-12
-4.6867e-12
-3.21787e-12
-1.92111e-12
-1.01224e-12
-4.7759e-13
-2.04283e-13
-7.98771e-14
-2.85989e-14
-9.29004e-15
-2.65567e-15
-6.12231e-16
-7.2901e-17
3.44681e-17
3.80468e-17
2.60191e-17
1.5414e-17
9.56922e-18
6.41298e-18
1.22963e-17
5.06624e-17
4.23462e-16
3.03647e-15
1.40831e-14
5.89016e-14
-3.23423e-21
-7.51683e-20
-9.79798e-19
-8.24796e-18
-4.95229e-17
-2.23916e-16
-7.898e-16
-2.19202e-15
-4.84655e-15
-8.78338e-15
-1.393e-14
-2.07002e-14
-3.3955e-14
-7.18035e-14
-1.70345e-13
-3.82956e-13
-7.61187e-13
-1.3073e-12
-1.91835e-12
-2.38474e-12
-2.49387e-12
-2.18424e-12
-1.60219e-12
-9.90319e-13
-5.22154e-13
-2.38429e-13
-9.60291e-14
-3.47227e-14
-1.14251e-14
-3.44257e-15
-9.44598e-16
-2.29595e-16
-4.50801e-17
-4.58083e-18
1.82266e-18
1.76803e-18
1.04914e-18
4.3481e-19
4.8107e-19
1.44503e-18
1.08445e-17
1.39097e-16
1.20818e-15
7.66267e-15
3.30493e-14
1.38217e-13
-1.77692e-21
-3.98696e-20
-4.96682e-19
-4.00135e-18
-2.30227e-17
-9.9581e-17
-3.33284e-16
-8.74146e-16
-1.82687e-15
-3.15097e-15
-4.83162e-15
-7.4685e-15
-1.41314e-14
-3.31666e-14
-7.9689e-14
-1.73896e-13
-3.30974e-13
-5.41388e-13
-7.53721e-13
-8.84906e-13
-8.68263e-13
-7.06439e-13
-4.74341e-13
-2.63055e-13
-1.21514e-13
-4.75296e-14
-1.61354e-14
-4.87369e-15
-1.3358e-15
-3.36029e-16
-7.74176e-17
-1.59244e-17
-2.66918e-18
-2.20622e-19
8.26308e-20
6.95812e-20
2.90199e-20
4.02742e-20
1.96539e-19
2.20836e-18
2.73953e-17
3.12156e-16
2.75974e-15
1.78391e-14
8.02106e-14
3.75249e-13
-8.81031e-22
-1.89166e-20
-2.24224e-19
-1.72226e-18
-9.44466e-18
-3.88468e-17
-1.23072e-16
-3.05211e-16
-6.05297e-16
-1.004e-15
-1.53685e-15
-2.59101e-15
-5.5654e-15
-1.36796e-14
-3.22883e-14
-6.76837e-14
-1.22895e-13
-1.91189e-13
-2.52505e-13
-2.80268e-13
-2.58531e-13
-1.95893e-13
-1.20638e-13
-5.99965e-14
-2.41638e-14
-8.03813e-15
-2.28729e-15
-5.76097e-16
-1.31873e-16
-2.7878e-17
-5.45071e-18
-9.6151e-19
-1.39579e-19
-1.02909e-20
3.20014e-21
2.20574e-21
3.89298e-21
2.61229e-20
3.64888e-19
4.45733e-18
5.52875e-17
6.70503e-16
6.38305e-15
4.56212e-14
2.42542e-13
1.3425e-12
-3.85943e-22
-7.87297e-21
-8.84147e-20
-6.44657e-19
-3.35369e-18
-1.3066e-17
-3.91611e-17
-9.20893e-17
-1.74625e-16
-2.83173e-16
-4.47516e-16
-8.37817e-16
-1.95569e-15
-4.8324e-15
-1.10313e-14
-2.21013e-14
-3.82123e-14
-5.65079e-14
-7.08283e-14
-7.44279e-14
-6.46975e-14
-4.5792e-14
-2.59365e-14
-1.15707e-14
-4.04084e-15
-1.13108e-15
-2.66827e-16
-5.55313e-17
-1.05425e-17
-1.86196e-18
-3.06614e-19
-4.57364e-20
-5.52504e-21
-2.8872e-22
1.21706e-22
3.91028e-22
3.18531e-21
5.29972e-20
7.17485e-19
9.22745e-18
1.18511e-16
1.46242e-15
1.52335e-14
1.27467e-13
8.11127e-13
4.76037e-12
-1.44468e-22
-2.78986e-21
-2.96026e-20
-2.04254e-19
-1.00539e-18
-3.70629e-18
-1.05315e-17
-2.36219e-17
-4.33053e-17
-7.00058e-17
-1.1692e-16
-2.39605e-16
-5.80917e-16
-1.40784e-15
-3.08455e-15
-5.8942e-15
-9.69875e-15
-1.36349e-14
-1.62296e-14
-1.61643e-14
-1.3264e-14
-8.78861e-15
-4.58587e-15
-1.83194e-15
-5.48414e-16
-1.25902e-16
-2.38375e-17
-3.95452e-18
-5.98898e-19
-8.46488e-20
-1.11403e-20
-1.29592e-21
-1.0527e-22
2.36261e-24
3.72453e-23
3.58669e-22
6.7345e-21
1.02132e-19
1.46396e-18
1.9782e-17
2.57207e-16
3.22024e-15
3.65686e-14
3.49088e-13
2.43139e-12
1.35929e-11
-4.40141e-23
-8.02772e-22
-8.08615e-21
-5.28623e-20
-2.46237e-19
-8.60837e-19
-2.33225e-18
-5.03383e-18
-9.03178e-18
-1.47727e-17
-2.61305e-17
-5.66913e-17
-1.37851e-16
-3.23255e-16
-6.78153e-16
-1.23679e-15
-1.93908e-15
-2.59449e-15
-2.93502e-15
-2.77217e-15
-2.14842e-15
-1.33324e-15
-6.40712e-16
-2.28246e-16
-5.75559e-17
-1.04213e-17
-1.51567e-18
-1.91903e-19
-2.22022e-20
-2.39205e-21
-2.33516e-22
-1.71379e-23
9.58536e-29
3.2431e-24
3.59151e-23
7.2334e-22
1.19401e-20
1.88931e-19
2.82894e-18
3.99795e-17
5.39158e-16
7.0301e-15
8.67036e-14
9.04388e-13
6.37056e-12
3.18168e-11
-9.88942e-24
-1.72385e-22
-1.66572e-21
-1.04448e-20
-4.66735e-20
-1.56693e-19
-4.09236e-19
-8.58445e-19
-1.5191e-18
-2.51439e-18
-4.60937e-18
-1.01816e-17
-2.4218e-17
-5.46212e-17
-1.1009e-16
-1.92621e-16
-2.89102e-16
-3.6958e-16
-3.98309e-16
-3.57177e-16
-2.61492e-16
-1.51878e-16
-6.70862e-17
-2.11838e-17
-4.40024e-18
-5.92032e-19
-6.21749e-20
-5.66871e-21
-4.72891e-22
-3.58706e-23
-2.09024e-24
3.47961e-26
2.49383e-25
3.01395e-24
6.30197e-23
1.11467e-21
1.90482e-20
3.12308e-19
4.88021e-18
7.25246e-17
1.0355e-15
1.45362e-14
1.99182e-13
2.20274e-12
1.48059e-11
6.36655e-11
-1.52057e-24
-2.56518e-23
-2.403e-22
-1.46252e-21
-6.35434e-21
-2.07935e-20
-5.3085e-20
-1.09141e-19
-1.89818e-19
-3.10042e-19
-5.61245e-19
-1.20759e-18
-2.73988e-18
-5.93524e-18
-1.16743e-17
-1.99223e-17
-2.90362e-17
-3.59172e-17
-3.72185e-17
-3.19212e-17
-2.22173e-17
-1.21388e-17
-4.93773e-18
-1.37721e-18
-2.29331e-19
-2.07786e-20
-1.43289e-21
-8.60954e-23
-4.68762e-24
-1.93411e-25
6.72415e-27
1.56234e-26
2.10889e-25
4.45412e-24
8.4062e-23
1.53392e-21
2.70435e-20
4.59196e-19
7.47449e-18
1.16173e-16
1.75228e-15
2.69376e-14
4.19915e-13
4.78486e-12
2.96944e-11
1.09701e-10
-1.38462e-25
-2.30299e-24
-2.12924e-23
-1.28139e-22
-5.51316e-22
-1.78674e-21
-4.50329e-21
-9.04861e-21
-1.50145e-20
-2.23593e-20
-3.53463e-20
-6.68713e-20
-1.29171e-19
-2.66081e-19
-5.547e-19
-9.90392e-19
-1.47796e-18
-1.85185e-18
-1.90059e-18
-1.60334e-18
-1.09488e-18
-5.82673e-19
-2.25334e-19
-5.72508e-20
-7.70485e-21
-4.04735e-22
-1.60253e-23
-5.52322e-25
-1.37295e-26
9.23929e-28
9.00766e-28
1.25238e-26
2.66419e-25
5.34466e-24
1.03592e-22
1.94414e-21
3.52866e-20
6.18434e-19
1.03829e-17
1.66183e-16
2.60771e-15
4.3872e-14
7.71397e-13
8.81447e-12
5.02256e-11
1.63674e-10
-5.13005e-27
-8.81226e-26
-8.36294e-25
-5.15371e-24
-2.26013e-23
-7.39835e-23
-1.8504e-22
-3.55333e-22
-5.13619e-22
-5.13939e-22
-2.20601e-22
3.96503e-22
5.1976e-21
1.24002e-20
1.61844e-20
1.69181e-20
1.35719e-20
6.13494e-21
3.35973e-21
1.24583e-21
-2.22512e-22
-8.07253e-22
-1.78436e-22
5.06248e-23
3.36025e-23
4.8195e-25
1.27283e-28
3.90704e-28
9.06102e-29
5.1083e-29
6.29906e-28
1.4246e-26
3.04053e-25
6.23859e-24
1.24109e-22
2.38864e-21
4.44495e-20
7.95891e-19
1.35752e-17
2.19717e-16
3.52848e-15
6.42026e-14
1.22345e-12
1.37533e-11
7.27614e-11
2.17227e-10
0
2.15861e-59
-5.09324e-52
-3.99132e-44
-9.97809e-42
-7.74559e-39
3.60791e-30
4.10477e-29
9.11657e-29
1.05729e-28
1.57572e-33
5.25447e-32
3.72095e-30
2.69197e-26
9.35955e-24
1.5873e-22
1.03863e-25
6.74738e-25
2.73398e-24
8.4792e-24
9.57352e-23
1.72212e-24
1.69861e-25
3.32469e-26
1.01277e-28
7.44697e-30
4.69415e-30
2.70276e-30
2.68668e-30
3.12588e-29
7.19285e-28
1.64591e-26
3.56272e-25
7.4903e-24
1.52204e-22
2.98444e-21
5.63149e-20
1.0167e-18
1.73854e-17
2.80525e-16
4.54694e-15
8.74012e-14
1.71857e-12
1.87843e-11
9.38317e-11
2.6732e-10
-7.68452e-49
0
-3.25238e-49
-1.19099e-46
-1.18333e-43
-8.49082e-41
-6.49128e-39
1.84979e-34
4.71457e-31
9.05814e-30
2.00812e-32
2.01418e-31
2.32196e-30
3.41542e-30
1.34464e-29
3.8793e-29
1.20064e-28
2.55468e-28
3.11742e-28
1.78241e-28
1.40432e-28
4.57794e-30
1.5544e-30
5.07076e-31
2.25754e-31
1.64514e-31
1.36279e-31
1.5473e-31
1.55081e-30
3.62985e-29
8.70006e-28
1.96635e-26
4.31779e-25
9.17501e-24
1.88248e-22
3.72205e-21
7.06913e-20
1.28347e-18
2.19962e-17
3.53849e-16
5.74718e-15
1.12864e-13
2.21304e-12
2.33791e-11
1.12074e-10
3.17087e-10
-6.91787e-49
-4.78488e-49
-1.07583e-51
-1.34553e-48
-5.40412e-46
-1.63709e-43
5.10196e-45
4.55462e-39
9.44415e-36
1.79932e-34
9.38414e-34
1.2313e-33
1.05574e-33
4.39011e-33
2.95483e-32
1.64357e-31
4.92527e-31
8.6681e-31
1.07815e-30
1.12061e-30
8.11806e-31
2.65696e-31
7.39455e-32
2.31695e-32
8.83635e-33
4.99247e-33
5.54719e-33
6.32084e-32
1.58056e-30
4.00596e-29
9.49501e-28
2.17248e-26
4.82053e-25
1.03214e-23
2.13634e-22
4.26578e-21
8.19852e-20
1.50714e-18
2.61001e-17
4.23992e-16
6.9884e-15
1.38119e-13
2.66931e-12
2.72341e-11
1.2706e-10
3.65958e-10
-1.43045e-49
-2.15771e-49
-1.02293e-55
-3.99567e-54
2.48019e-52
9.84521e-50
3.08354e-47
1.23776e-44
3.38777e-42
2.14829e-38
2.72359e-36
1.99389e-35
7.18384e-35
2.27696e-34
1.97013e-33
1.2878e-32
3.83067e-32
6.37049e-32
7.38659e-32
7.11739e-32
3.56527e-32
1.09795e-32
3.0903e-33
8.80464e-34
2.87327e-34
1.89662e-34
1.83953e-33
5.47589e-32