/*--------------------------------*- C++ -*----------------------------------*\
  =========                 |
  \\      /  F ield         | OpenFOAM: The Open Source CFD Toolbox
   \\    /   O peration     | Website:  https://openfoam.org
    \\  /    A nd           | Version:  7
     \\/     M anipulation  |
\*---------------------------------------------------------------------------*/
FoamFile
{
    version     2.0;
    format      ascii;
    class       surfaceScalarField;
    location    "0.35";
    object      alphaPhi0.water;
}
// * * * * * * * * * * * * * * * * * * * * * * * * * * * * * * * * * * * * * //

dimensions      [0 3 -1 0 0 0 0];

internalField   nonuniform List<scalar> 
17936
(
-1.89741e-06
1.89741e-06
-2.32381e-06
4.26392e-07
-1.59325e-06
-7.3056e-07
-3.7786e-07
-1.21539e-06
1.00091e-06
-1.37877e-06
2.41347e-06
-1.41256e-06
3.78992e-06
-1.37645e-06
5.103e-06
-1.31308e-06
6.34689e-06
-1.24389e-06
7.52576e-06
-1.17887e-06
8.64823e-06
-1.12247e-06
9.72427e-06
-1.07604e-06
1.07635e-05
-1.03919e-06
1.17742e-05
-1.0107e-06
1.27632e-05
-9.89001e-07
1.37356e-05
-9.72455e-07
1.46951e-05
-9.59465e-07
1.56436e-05
-9.48516e-07
1.65818e-05
-9.38171e-07
1.75088e-05
-9.27054e-07
1.84226e-05
-9.13796e-07
1.93196e-05
-8.96999e-07
2.01948e-05
-8.75174e-07
2.10415e-05
-8.46675e-07
2.18511e-05
-8.09634e-07
2.2613e-05
-7.61863e-07
2.33137e-05
-7.0073e-07
2.39367e-05
-6.22962e-07
2.44611e-05
-5.24431e-07
2.48596e-05
-3.9853e-07
2.50959e-05
-2.36274e-07
2.51035e-05
-7.57899e-09
2.47724e-05
3.31032e-07
2.40338e-05
7.38622e-07
2.27959e-05
1.23791e-06
2.09502e-05
1.84572e-06
1.8387e-05
2.56324e-06
1.50321e-05
3.35488e-06
1.09112e-05
4.1209e-06
6.21712e-06
4.69405e-06
1.31316e-06
4.90395e-06
-3.46623e-06
4.87649e-06
-8.17754e-06
4.40235e-06
-1.08793e-05
2.18691e-06
-8.03312e-06
-2.86325e-06
-8.05033e-06
-1.32859e-06
3.22601e-06
-1.1478e-06
2.45602e-07
-3.60236e-07
-1.51813e-06
7.60993e-07
-2.33662e-06
2.05242e-06
-2.67019e-06
3.39183e-06
-2.75197e-06
4.71983e-06
-2.70445e-06
6.00743e-06
-2.60068e-06
7.24416e-06
-2.48063e-06
8.43002e-06
-2.36472e-06
9.57003e-06
-2.26248e-06
1.06712e-05
-2.17718e-06
1.17406e-05
-2.10865e-06
1.27849e-05
-2.05497e-06
1.38093e-05
-2.01343e-06
1.4818e-05
-1.98111e-06
1.58136e-05
-1.95509e-06
1.67976e-05
-1.93255e-06
1.77702e-05
-1.91077e-06
1.87303e-05
-1.88711e-06
1.96754e-05
-1.85892e-06
2.06019e-05
-1.82349e-06
2.15046e-05
-1.77789e-06
2.23768e-05
-1.71889e-06
2.321e-05
-1.64281e-06
2.39935e-05
-1.54535e-06
2.47141e-05
-1.42136e-06
2.53557e-05
-1.26452e-06
2.58981e-05
-1.06685e-06
2.6317e-05
-8.1745e-07
2.65833e-05
-5.02499e-07
2.66742e-05
-9.85535e-08
2.65718e-05
4.33441e-07
2.62002e-05
1.11027e-06
2.54753e-05
1.96277e-06
2.42951e-05
3.02596e-06
2.25317e-05
4.32657e-06
2.00341e-05
5.85249e-06
1.6657e-05
7.49799e-06
1.23378e-05
9.01334e-06
7.21421e-06
1.00275e-05
1.74821e-06
1.04104e-05
-3.04287e-06
8.90371e-06
-6.2466e-06
4.94353e-06
-6.09469e-06
-3.04556e-06
-1.41802e-05
-6.56216e-07
3.88222e-06
-2.94673e-07
-1.1594e-07
4.90511e-07
-2.30331e-06
1.56012e-06
-3.40623e-06
2.77752e-06
-3.88758e-06
4.04916e-06
-4.02362e-06
5.32192e-06
-3.97721e-06
6.56808e-06
-3.84685e-06
7.77605e-06
-3.6886e-06
8.94369e-06
-3.53235e-06
1.00737e-05
-3.39254e-06
1.11711e-05
-3.27457e-06
1.22413e-05
-3.1788e-06
1.32892e-05
-3.10293e-06
1.43193e-05
-3.04348e-06
1.53346e-05
-2.99645e-06
1.63373e-05
-2.95782e-06
1.73284e-05
-2.92361e-06
1.83076e-05
-2.88997e-06
1.92736e-05
-2.85308e-06
2.02238e-05
-2.80911e-06
2.11543e-05
-2.75406e-06
2.20601e-05
-2.68364e-06
2.29343e-05
-2.5931e-06
2.37685e-05
-2.47703e-06
2.45523e-05
-2.32912e-06
2.52728e-05
-2.14187e-06
2.59144e-05
-1.90612e-06
2.6458e-05
-1.61047e-06
2.68809e-05
-1.24031e-06
2.71554e-05
-7.76998e-07
2.72525e-05
-1.95659e-07
2.7145e-05
5.40906e-07
2.67871e-05
1.46822e-06
2.61228e-05
2.62706e-06
2.50868e-05
4.0619e-06
2.36031e-05
5.81029e-06
2.15808e-05
7.87476e-06
1.89124e-05
1.01665e-05
1.54922e-05
1.24335e-05
1.13179e-05
1.42018e-05
6.6314e-06
1.50994e-05
2.05106e-06
1.31943e-05
-1.47921e-06
8.18025e-06
-3.17533e-06
-1.34556e-06
-1.74069e-05
-8.68843e-08
3.96911e-06
3.68024e-07
-5.70849e-07
1.17722e-06
-3.1125e-06
2.21632e-06
-4.44533e-06
3.38139e-06
-5.05265e-06
4.59805e-06
-5.24028e-06
5.82143e-06
-5.20059e-06
7.02707e-06
-5.05248e-06
8.20383e-06
-4.86536e-06
9.34867e-06
-4.67719e-06
1.04629e-05
-4.50679e-06
1.155e-05
-4.36162e-06
1.26139e-05
-4.24271e-06
1.36586e-05
-4.14762e-06
1.46873e-05
-4.07224e-06
1.57027e-05
-4.01178e-06
1.67061e-05
-3.96122e-06
1.7698e-05
-3.91559e-06
1.86781e-05
-3.87e-06
1.96445e-05
-3.81955e-06
2.05947e-05
-3.75929e-06
2.15247e-05
-3.68401e-06
2.24291e-05
-3.58812e-06
2.33015e-05
-3.46542e-06
2.41333e-05
-3.30884e-06
2.49143e-05
-3.1102e-06
2.56322e-05
-2.85975e-06
2.62719e-05
-2.54575e-06
2.68151e-05
-2.15375e-06
2.72405e-05
-1.66569e-06
2.75225e-05
-1.05898e-06
2.76325e-05
-3.05675e-07
2.75408e-05
6.32634e-07
2.72107e-05
1.79835e-06
2.65997e-05
3.23798e-06
2.5662e-05
4.99964e-06
2.43496e-05
7.1227e-06
2.26118e-05
9.61257e-06
2.03888e-05
1.23895e-05
1.76074e-05
1.52148e-05
1.42174e-05
1.75918e-05
1.0379e-05
1.89379e-05
5.94223e-06
1.81871e-05
2.51982e-06
1.25366e-05
7.72581e-08
1.24082e-06
-1.73284e-05
3.38165e-07
3.63094e-06
8.92455e-07
-1.12514e-06
1.74093e-06
-3.96098e-06
2.77271e-06
-5.47711e-06
3.90469e-06
-6.18463e-06
5.07912e-06
-6.41471e-06
6.26056e-06
-6.38203e-06
7.42921e-06
-6.22113e-06
8.57565e-06
-6.0118e-06
9.69689e-06
-5.79843e-06
1.07935e-05
-5.6034e-06
1.18678e-05
-5.43596e-06
1.29229e-05
-5.29776e-06
1.39616e-05
-5.18633e-06
1.49865e-05
-5.09709e-06
1.59992e-05
-5.02456e-06
1.7001e-05
-4.96293e-06
1.79917e-05
-4.90632e-06
1.89706e-05
-4.84889e-06
1.99358e-05
-4.78476e-06
2.08844e-05
-4.70792e-06
2.18124e-05
-4.61203e-06
2.27146e-05
-4.49027e-06
2.35842e-05
-4.33504e-06
2.44131e-05
-4.13773e-06
2.51913e-05
-3.88838e-06
2.59067e-05
-3.57519e-06
2.6545e-05
-3.18402e-06
2.70889e-05
-2.69768e-06
2.75183e-05
-2.09506e-06
2.78095e-05
-1.35024e-06
2.79359e-05
-4.32009e-07
2.78688e-05
6.99751e-07
2.75766e-05
2.09047e-06
2.70256e-05
3.78898e-06
2.61817e-05
5.84354e-06
2.50132e-05
8.29122e-06
2.34908e-05
1.1135e-05
2.15819e-05
1.42983e-05
1.924e-05
1.75567e-05
1.64026e-05
2.04293e-05
1.31164e-05
2.2224e-05
9.57711e-06
2.17863e-05
5.80611e-06
1.66858e-05
2.19885e-06
4.90262e-06
-1.51282e-05
5.80766e-07
3.05017e-06
1.28511e-06
-1.82949e-06
2.19694e-06
-4.87281e-06
3.24153e-06
-6.5217e-06
4.35658e-06
-7.29967e-06
5.50026e-06
-7.5584e-06
6.64722e-06
-7.52899e-06
7.78328e-06
-7.35719e-06
8.90164e-06
-7.13017e-06
1.00001e-05
-6.89684e-06
1.10789e-05
-6.68224e-06
1.21398e-05
-6.4969e-06
1.31851e-05
-6.34298e-06
1.42167e-05
-6.21796e-06
1.52365e-05
-6.11691e-06
1.62457e-05
-6.03375e-06
1.72447e-05
-5.96197e-06
1.82333e-05
-5.89491e-06
1.92103e-05
-5.82588e-06
2.01736e-05
-5.74808e-06
2.11202e-05
-5.65452e-06
2.2046e-05
-5.5378e-06
2.29456e-05
-5.38992e-06
2.38126e-05
-5.20201e-06
2.46389e-05
-4.96398e-06
2.54147e-05
-4.66422e-06
2.61286e-05
-4.28904e-06
2.67667e-05
-3.82215e-06
2.73129e-05
-3.2439e-06
2.77483e-05
-2.5305e-06
2.80513e-05
-1.65318e-06
2.81971e-05
-5.77865e-07
2.81598e-05
7.37144e-07
2.79116e-05
2.33866e-06
2.74248e-05
4.27577e-06
2.66734e-05
6.59496e-06
2.56351e-05
9.32946e-06
2.42918e-05
1.24782e-05
2.26238e-05
1.59664e-05
2.05972e-05
1.95832e-05
1.81488e-05
2.28777e-05
1.52532e-05
2.51196e-05
1.19765e-05
2.5063e-05
8.18732e-06
2.04757e-05
3.94271e-06
9.14757e-06
-1.11825e-05
7.1301e-07
2.33716e-06
1.56818e-06
-2.68465e-06
2.55881e-06
-5.86344e-06
3.63052e-06
-7.59341e-06
4.74079e-06
-8.40994e-06
5.8631e-06
-8.68072e-06
6.98229e-06
-8.64818e-06
8.09029e-06
-8.46518e-06
9.18339e-06
-8.22327e-06
1.02606e-05
-7.97405e-06
1.13224e-05
-7.74407e-06
1.23702e-05
-7.54468e-06
1.34055e-05
-7.37828e-06
1.44298e-05
-7.24225e-06
1.54442e-05
-7.13133e-06
1.64494e-05
-7.03896e-06
1.74454e-05
-6.95798e-06
1.84316e-05
-6.88106e-06
1.94064e-05
-6.80072e-06
2.03677e-05
-6.70933e-06
2.13122e-05
-6.59901e-06
2.22357e-05
-6.46135e-06
2.31331e-05
-6.28726e-06
2.39977e-05
-6.06667e-06
2.48219e-05
-5.78813e-06
2.55962e-05
-5.4385e-06
2.63095e-05
-5.00238e-06
2.69489e-05
-4.46153e-06
2.74991e-05
-3.79416e-06
2.79428e-05
-2.97414e-06
2.82599e-05
-1.97032e-06
2.84283e-05
-7.46249e-07
2.84244e-05
7.41051e-07
2.82241e-05
2.53889e-06
2.78044e-05
4.69553e-06
2.71444e-05
7.2549e-06
2.62278e-05
1.02462e-05
2.50412e-05
1.36648e-05
2.35693e-05
1.74384e-05
2.17817e-05
2.13707e-05
1.96137e-05
2.50457e-05
1.69936e-05
2.77397e-05
1.38633e-05
2.81933e-05
9.99504e-06
2.43441e-05
5.25425e-06
1.38884e-05
-5.93287e-06
7.86751e-07
1.55041e-06
1.77216e-06
-3.67006e-06
2.84286e-06
-6.93414e-06
3.94818e-06
-8.69873e-06
5.06105e-06
-9.52281e-06
6.16869e-06
-9.78835e-06
7.26558e-06
-9.74507e-06
8.34964e-06
-9.54924e-06
9.42045e-06
-9.29407e-06
1.04785e-05
-9.03205e-06
1.15246e-05
-8.79021e-06
1.256e-05
-8.58009e-06
1.35858e-05
-8.40409e-06
1.4603e-05
-8.25941e-06
1.56121e-05
-8.14045e-06
1.66133e-05
-8.04019e-06
1.76063e-05
-7.95095e-06
1.859e-05
-7.86474e-06
1.95627e-05
-7.77341e-06
2.05219e-05
-7.66858e-06
2.14644e-05
-7.5415e-06
2.2386e-05
-7.38287e-06
2.32813e-05
-7.1826e-06
2.41441e-05
-6.92946e-06
2.49667e-05
-6.61078e-06
2.57402e-05
-6.21202e-06
2.64541e-05
-5.71623e-06
2.7096e-05
-5.10347e-06
2.7652e-05
-4.3501e-06
2.81058e-05
-3.428e-06
2.84395e-05
-2.30402e-06
2.86331e-05
-9.39859e-07
2.86658e-05
7.08435e-07
2.85165e-05
2.68817e-06
2.81657e-05
5.04632e-06
2.75965e-05
7.82409e-06
2.67955e-05
1.10472e-05
2.57512e-05
1.47091e-05
2.44479e-05
1.87416e-05
2.28532e-05
2.29655e-05
2.08964e-05
2.70025e-05
1.84706e-05
3.01655e-05
1.54236e-05
3.12403e-05
1.14465e-05
2.83212e-05
6.26527e-06
1.90696e-05
3.2734e-07
8.34398e-07
7.16015e-07
1.92387e-06
-4.75954e-06
3.06596e-06
-8.07622e-06
4.20411e-06
-9.83688e-06
5.32221e-06
-1.06409e-05
6.419e-06
-1.08851e-05
7.49752e-06
-1.08236e-05
8.56112e-06
-1.06128e-05
9.61243e-06
-1.03454e-05
1.06534e-05
-1.0073e-05
1.16854e-05
-9.82221e-06
1.27095e-05
-9.60423e-06
1.37266e-05
-9.42118e-06
1.47371e-05
-9.26995e-06
1.57413e-05
-9.14461e-06
1.67388e-05
-9.03768e-06
1.77289e-05
-8.94102e-06
1.87102e-05
-8.84608e-06
1.96809e-05
-8.74407e-06
2.06382e-05
-8.62593e-06
2.15789e-05
-8.48215e-06
2.24986e-05
-8.30259e-06
2.33922e-05
-8.07622e-06
2.42535e-05
-7.79078e-06
2.50752e-05
-7.43248e-06
2.58487e-05
-6.98549e-06
2.6564e-05
-6.43153e-06
2.72097e-05
-5.74916e-06
2.77728e-05
-4.91317e-06
2.82386e-05
-3.89383e-06
2.85909e-05
-2.65635e-06
2.88121e-05
-1.16101e-06
2.88837e-05
6.36826e-07
2.87877e-05
2.7842e-06
2.85073e-05
5.32666e-06
2.80284e-05
8.303e-06
2.73392e-05
1.17364e-05
2.64284e-05
1.562e-05
2.52778e-05
1.98921e-05
2.38501e-05
2.43932e-05
2.20659e-05
2.87867e-05
1.97883e-05
3.24431e-05
1.67943e-05
3.42344e-05
1.26996e-05
3.24159e-05
7.11129e-06
2.46579e-05
7.43373e-06
8.71968e-07
-1.55953e-07
2.0428e-06
-5.93038e-06
3.24291e-06
-9.27632e-06
4.40793e-06
-1.10019e-05
5.52993e-06
-1.17629e-05
6.61711e-06
-1.19723e-05
7.67965e-06
-1.18861e-05
8.72545e-06
-1.16586e-05
9.75972e-06
-1.13797e-05
1.07857e-05
-1.10989e-05
1.18051e-05
-1.08417e-05
1.28192e-05
-1.06183e-05
1.38285e-05
-1.04304e-05
1.4833e-05
-1.02745e-05
1.58326e-05
-1.01442e-05
1.68266e-05
-1.00317e-05
1.7814e-05
-9.9284e-06
1.87931e-05
-9.8252e-06
1.97619e-05
-9.7128e-06
2.07174e-05
-9.5815e-06
2.16564e-05
-9.42109e-06
2.25745e-05
-9.22067e-06
2.34666e-05
-8.96836e-06
2.43268e-05
-8.65096e-06
2.51479e-05
-8.25364e-06
2.59219e-05
-7.75949e-06
2.66394e-05
-7.149e-06
2.72898e-05
-6.39952e-06
2.78611e-05
-5.48455e-06
2.83404e-05
-4.37305e-06
2.8713e-05
-3.029e-06
2.89636e-05
-1.41158e-06
2.90761e-05
5.2427e-07
2.90351e-05
2.8252e-06
2.88263e-05
5.53546e-06
2.84376e-05
8.69178e-06
2.78581e-05
1.23158e-05
2.7076e-05
1.64021e-05
2.60706e-05
2.08976e-05
2.47987e-05
2.56651e-05
2.31717e-05
3.04137e-05
2.10269e-05
3.45879e-05
1.80842e-05
3.7177e-05
1.38853e-05
3.66147e-05
7.94574e-06
3.05975e-05
1.53737e-05
9.07739e-07
-1.06369e-06
2.1419e-06
-7.16454e-06
3.38529e-06
-1.05197e-05
4.56824e-06
-1.21849e-05
5.6901e-06
-1.28848e-05
6.76695e-06
-1.30492e-05
7.81461e-06
-1.29338e-05
8.84447e-06
-1.26885e-05
9.8637e-06
-1.23989e-05
1.08764e-05
-1.21117e-05
1.18849e-05
-1.18501e-05
1.28901e-05
-1.16235e-05
1.38923e-05
-1.14327e-05
1.48915e-05
-1.12737e-05
1.5887e-05
-1.11397e-05
1.68778e-05
-1.10226e-05
1.78627e-05
-1.09132e-05
1.88397e-05
-1.08022e-05
1.98065e-05
-1.06796e-05
2.07603e-05
-1.05353e-05
2.16976e-05
-1.03583e-05
2.2614e-05
-1.01372e-05
2.35048e-05
-9.8591e-06
2.4364e-05
-9.51014e-06
2.51848e-05
-9.07452e-06
2.59597e-05
-8.53435e-06
2.66798e-05
-7.86912e-06
2.73355e-05
-7.05519e-06
2.7916e-05
-6.06505e-06
2.84097e-05
-4.8667e-06
2.88038e-05
-3.42319e-06
2.90852e-05
-1.69295e-06
2.92401e-05
3.69338e-07
2.92554e-05
2.8099e-06
2.9119e-05
5.67187e-06
2.88204e-05
8.99039e-06
2.83499e-05
1.27864e-05
2.7695e-05
1.7057e-05
2.6833e-05
2.17595e-05
2.57168e-05
2.67813e-05
2.42494e-05
3.18811e-05
2.22474e-05
3.65898e-05
1.9383e-05
4.00414e-05
1.51198e-05
4.0878e-05
8.85118e-06
3.68661e-05
2.42179e-05
9.45683e-07
-2.00937e-06
2.22916e-06
-8.44802e-06
3.50134e-06
-1.17919e-05
4.69205e-06
-1.33756e-05
5.80834e-06
-1.40011e-05
6.87293e-06
-1.41138e-05
7.90589e-06
-1.39668e-05
8.92103e-06
-1.37036e-05
9.92675e-06
-1.34046e-05
1.09278e-05
-1.31127e-05
1.19264e-05
-1.28488e-05
1.29237e-05
-1.26208e-05
1.39198e-05
-1.24287e-05
1.4914e-05
-1.22679e-05
1.59057e-05
-1.21314e-05
1.68935e-05
-1.20104e-05
1.78759e-05
-1.18956e-05
1.88507e-05
-1.1777e-05
1.98156e-05
-1.16445e-05
2.07675e-05
-1.14872e-05
2.17029e-05
-1.12938e-05
2.26177e-05
-1.10519e-05
2.35069e-05
-1.07484e-05
2.43651e-05
-1.03683e-05
2.51857e-05
-9.89515e-06
2.59616e-05
-9.31019e-06
2.66845e-05
-8.5921e-06
2.73458e-05
-7.71645e-06
2.79358e-05
-6.65508e-06
2.84445e-05
-5.37534e-06
2.88609e-05
-3.83966e-06
2.91739e-05
-2.00596e-06
2.93721e-05
1.71157e-07
2.94445e-05
2.73755e-06
2.93809e-05
5.73543e-06
2.91726e-05
9.19868e-06
2.88109e-05
1.31481e-05
2.82838e-05
1.75841e-05
2.75681e-05
2.24753e-05
2.66149e-05
2.77345e-05
2.53232e-05
3.31729e-05
2.34956e-05
3.84174e-05
2.07658e-05
4.27712e-05
1.65155e-05
4.51283e-05
9.95774e-06
4.34238e-05
3.41685e-05
9.87597e-07
-2.99697e-06
2.30909e-06
-9.76951e-06
3.59648e-06
-1.30793e-05
4.78486e-06
-1.45639e-05
5.88981e-06
-1.5106e-05
6.93976e-06
-1.51637e-05
7.9577e-06
-1.49847e-05
8.95881e-06
-1.47048e-05
9.95213e-06
-1.43979e-05
1.09426e-05
-1.41031e-05
1.19324e-05
-1.38387e-05
1.29226e-05
-1.36109e-05
1.39129e-05
-1.3419e-05
1.49026e-05
-1.32576e-05
1.58905e-05
-1.31194e-05
1.68753e-05
-1.29952e-05
1.7855e-05
-1.28753e-05
1.88275e-05
-1.27495e-05
1.97901e-05
-1.26071e-05
2.07398e-05
-1.24369e-05
2.1673e-05
-1.2227e-05
2.25858e-05
-1.19647e-05
2.34733e-05
-1.16359e-05
2.43301e-05
-1.12252e-05
2.51503e-05
-1.07153e-05
2.59269e-05
-1.00868e-05
2.66526e-05
-9.3178e-06
2.73194e-05
-8.38325e-06
2.7919e-05
-7.25463e-06
2.84427e-05
-5.89903e-06
2.88816e-05
-4.27858e-06
2.92265e-05
-2.35089e-06
2.94682e-05
-7.0557e-08
2.95978e-05
2.60794e-06
2.96072e-05
5.72608e-06
2.94892e-05
9.31669e-06
2.92367e-05
1.34006e-05
2.88391e-05
1.79817e-05
2.82749e-05
2.30395e-05
2.74972e-05
2.85121e-05
2.64069e-05
3.42632e-05
2.48033e-05
4.0021e-05
2.22961e-05
4.52784e-05
1.81912e-05
4.92333e-05
1.14332e-05
5.01818e-05
4.5595e-05
1.0345e-06
-4.03147e-06
2.38385e-06
-1.11189e-05
3.67399e-06
-1.43694e-05
4.85083e-06
-1.57408e-05
5.93924e-06
-1.61944e-05
6.97229e-06
-1.61968e-05
7.97471e-06
-1.59871e-05
8.96221e-06
-1.56923e-05
9.94385e-06
-1.53796e-05
1.09244e-05
-1.50837e-05
1.19061e-05
-1.48204e-05
1.28895e-05
-1.45943e-05
1.38743e-05
-1.44037e-05
1.48594e-05
-1.42428e-05
1.58436e-05
-1.41035e-05
1.6825e-05
-1.39766e-05
1.78017e-05
-1.3852e-05
1.87713e-05
-1.37191e-05
1.97312e-05
-1.3567e-05
2.06782e-05
-1.33839e-05
2.16087e-05
-1.31576e-05
2.25189e-05
-1.28748e-05
2.34041e-05
-1.2521e-05
2.42591e-05
-1.20802e-05
2.50783e-05
-1.15345e-05
2.58552e-05
-1.08638e-05
2.65832e-05
-1.00458e-05
2.7255e-05
-9.05509e-06
2.78636e-05
-7.86322e-06
2.84019e-05
-6.43732e-06
2.88629e-05
-4.73953e-06
2.92394e-05
-2.72736e-06
2.95242e-05
-3.55446e-07
2.97107e-05
2.4215e-06
2.97924e-05
5.64433e-06
2.97642e-05
9.34488e-06
2.96211e-05
1.35438e-05
2.93549e-05
1.82478e-05
2.89484e-05
2.3446e-05
2.8361e-05
2.90995e-05
2.75034e-05
3.51209e-05
2.61868e-05
4.13375e-05
2.40229e-05
4.74423e-05
2.02722e-05
5.2984e-05
1.35057e-05
5.69482e-05
5.91199e-05
1.08708e-06
-5.11855e-06
2.45391e-06
-1.24857e-05
3.73565e-06
-1.56512e-05
4.89331e-06
-1.68985e-05
5.96108e-06
-1.72622e-05
6.97554e-06
-1.72112e-05
7.96208e-06
-1.69737e-05
8.93617e-06
-1.66663e-05
9.90654e-06
-1.63499e-05
1.08776e-05
-1.60548e-05
1.18514e-05
-1.57941e-05
1.28281e-05
-1.5571e-05
1.38071e-05
-1.53828e-05
1.47874e-05
-1.5223e-05
1.57673e-05
-1.50834e-05
1.67448e-05
-1.49542e-05
1.77179e-05
-1.48251e-05
1.8684e-05
-1.46852e-05
1.96403e-05
-1.45233e-05
2.05837e-05
-1.43273e-05
2.15108e-05
-1.40847e-05
2.24175e-05
-1.37816e-05
2.32995e-05
-1.3403e-05
2.4152e-05
-1.29326e-05
2.49694e-05
-1.23519e-05
2.57459e-05
-1.16403e-05
2.64753e-05
-1.07751e-05
2.71513e-05
-9.73108e-06
2.77679e-05
-8.47989e-06
2.83198e-05
-6.98919e-06
2.88018e-05
-5.2215e-06
2.92088e-05
-3.13437e-06
2.95358e-05
-6.82463e-07
2.97779e-05
2.17938e-06
2.99308e-05
5.49142e-06
2.99913e-05
9.2844e-06
2.99568e-05
1.35782e-05
2.98233e-05
1.83813e-05
2.95796e-05
2.36897e-05
2.91964e-05
2.94828e-05
2.8603e-05
3.57142e-05
2.76426e-05
4.22979e-05
2.59698e-05
4.91151e-05
2.28918e-05
5.6062e-05
1.6494e-05
6.33461e-05
7.56268e-05
1.14218e-06
-6.26074e-06
2.51823e-06
-1.38617e-05
3.7823e-06
-1.69152e-05
4.91521e-06
-1.80314e-05
5.95982e-06
-1.83068e-05
6.95487e-06
-1.82063e-05
7.92547e-06
-1.79443e-05
8.88637e-06
-1.76272e-05
9.84565e-06
-1.73092e-05
1.08073e-05
-1.70165e-05
1.1773e-05
-1.67598e-05
1.27428e-05
-1.65408e-05
1.37157e-05
-1.63558e-05
1.46906e-05
-1.61979e-05
1.56655e-05
-1.60583e-05
1.66384e-05
-1.59271e-05
1.76069e-05
-1.57936e-05
1.85685e-05
-1.56468e-05
1.95204e-05
-1.54751e-05
2.04593e-05
-1.52663e-05
2.13818e-05
-1.50072e-05
2.22842e-05
-1.46839e-05
2.3162e-05
-1.42809e-05
2.40108e-05
-1.37814e-05
2.48255e-05
-1.31665e-05
2.56005e-05
-1.24154e-05
2.63303e-05
-1.15049e-05
2.70092e-05
-1.041e-05
2.76326e-05
-9.10328e-06
2.81966e-05
-7.55316e-06
2.8698e-05
-5.72291e-06
2.91339e-05
-3.5703e-06
2.95014e-05
-1.0499e-06
2.97973e-05
1.88342e-06
3.00194e-05
5.26938e-06
3.01664e-05
9.13742e-06
3.02387e-05
1.35059e-05
3.02371e-05
1.83829e-05
3.01587e-05
2.37681e-05
2.99888e-05
2.96526e-05
2.96849e-05
3.60181e-05
2.91426e-05
4.28401e-05
2.81188e-05
5.0139e-05
2.60799e-05
5.81009e-05
2.04476e-05
6.89784e-05
9.60593e-05
2.68969e-41
-1.14575e-39
-6.73009e-39
5.8351e-39
-5.78455e-39
8.19694e-39
-7.10119e-40
1.54365e-39
-7.22739e-41
8.54635e-41
-3.5028e-42
3.97093e-42
-6.40708e-44
5.44216e-44
-1.44578e-45
-2.80317e-45
-1.35154e-45
-1.40393e-44
-1.30034e-45
-1.48619e-44
-8.84874e-46
-1.27633e-44
-3.7208e-46
-7.11377e-45
-8.22558e-47
-2.29429e-45
-8.24738e-48
-3.81003e-46
-3.00181e-49
-3.05435e-47
-9.82886e-52
-1.11316e-48
5.04442e-52
-2.22172e-50
8.31982e-53
-1.73963e-51
3.09946e-54
-1.74145e-52
4.47052e-56
-2.92817e-54
3.93596e-58
-2.4282e-56
2.78671e-60
-1.55474e-58
2.43418e-63
-8.09732e-61
3.83727e-64
-1.18005e-64
3.40812e-66
-7.53553e-66
7.66802e-68
1.88161e-68
1.55152e-69
1.25983e-69
2.65123e-71
4.11359e-71
3.79738e-73
9.78264e-73
4.46726e-75
1.82781e-74
4.20188e-77
2.72815e-76
3.03041e-79
3.22488e-78
1.57037e-81
2.93411e-80
5.24911e-84
1.94504e-82
9.26703e-87
8.48447e-85
5.60416e-90
1.96749e-87
4.19824e-91
1.44605e-90
1.42779e-93
-4.66153e-38
2.57792e-38
-2.63281e-37
5.6866e-37
-3.7407e-37
7.91134e-37
-1.06675e-37
3.77439e-37
-1.47371e-38
4.37869e-38
-9.55084e-40
2.6719e-39
-2.00819e-41
4.15027e-41
-1.80107e-43
-1.29517e-42
-8.94817e-44
-6.88703e-44
-1.20115e-43
-4.48259e-44
-1.28332e-43
-9.0498e-44
-8.00676e-44
-1.14077e-43
-2.19725e-44
-6.82828e-44
-2.52006e-45
-2.19096e-44
-1.03987e-46
-3.2058e-45
-6.48149e-49
-2.25433e-46
1.52101e-49
-7.7428e-48
2.5036e-50
-4.92707e-49
1.06965e-51
-5.89792e-50
1.73235e-53
-1.11745e-51
1.63607e-55
-1.00462e-53
1.34844e-57
-6.69007e-56
1.06264e-59
-4.04943e-58
8.75697e-63
-1.9919e-60
1.83276e-63
-3.08653e-64
7.15323e-66
7.23162e-66
1.36429e-67
4.10353e-67
2.24718e-69
1.31785e-68
3.15171e-71
3.05972e-70
3.69207e-73
5.62274e-72
3.52129e-75
8.35024e-74
2.63631e-77
9.97184e-76
1.46559e-79
9.35022e-78
5.53346e-82
6.57005e-80
1.21412e-84
3.17801e-82
1.13004e-87
8.95879e-85
2.01451e-91
9.99978e-88
1.14976e-91
-3.65653e-36
4.08247e-36
-1.51957e-35
3.76506e-35
-2.23599e-35
5.36408e-35
-7.79201e-36
3.33922e-35
-1.24247e-36
4.36097e-36
-8.94343e-38
3.03753e-37
-2.2168e-39
4.53168e-39
-4.66192e-41
-2.13838e-40
-2.07219e-41
-1.44198e-41
-2.51126e-41
-1.44492e-41
-2.21819e-41
-2.41847e-41
-1.32951e-41
-2.72966e-41
-3.49387e-42
-1.5403e-41
-4.01581e-43
-4.63864e-42
-1.72646e-44
-6.99833e-43
-1.36357e-46
-5.03897e-44
2.15385e-47
-1.82622e-45
3.76395e-48
-8.23756e-47
1.80297e-49
-9.9765e-48
3.26364e-51
-2.10283e-49
3.30965e-53
-2.05852e-51
2.79955e-55
-1.43301e-53
2.36856e-57
-8.86302e-56
1.89382e-59
-4.76597e-58
6.61117e-62
-1.54395e-60
2.57761e-64
5.87621e-64
9.2513e-66
2.5999e-65
7.38161e-68
7.24744e-67
9.59466e-70
1.50672e-68
1.07621e-71
2.56721e-70
1.00636e-73
3.63056e-72
7.56972e-76
4.22495e-74
4.34829e-78
3.94571e-76
1.76372e-80
2.82919e-78
4.44089e-83
1.44569e-80
6.92822e-86
4.59114e-83
1.80131e-89
6.68144e-86
1.77837e-89
-1.37618e-34
2.05525e-34
-5.80751e-34
1.49969e-33
-8.45326e-34
2.2777e-33
-3.75606e-34
1.70411e-33
-6.82478e-35
2.59041e-34
-5.51786e-36
2.02214e-35
-1.62202e-37
2.83386e-37
-9.39156e-39
-2.00577e-38
-3.08124e-39
-6.31283e-39
-3.18826e-39
-2.7993e-39
-2.69645e-39
-3.90332e-39
-1.44372e-39
-3.96192e-39
-3.64427e-40
-2.1139e-39
-4.16463e-41
-6.18121e-40
-1.83968e-42
-9.29602e-41
-1.60717e-44
-6.85057e-42
2.12628e-45
-2.61684e-43
3.88565e-46
-9.65685e-45
2.05042e-47
-1.13929e-45
4.13058e-49
-2.64937e-47
4.51933e-51
-2.83229e-49
3.94658e-53
-2.07632e-51
3.37358e-55
-1.31842e-53
2.73575e-57
-7.262e-56
1.55522e-59
-2.51427e-58
2.80677e-62
8.10057e-62
4.98658e-64
3.34585e-63
5.95806e-66
8.5136e-65
7.15449e-68
1.61534e-66
7.6862e-70
2.57279e-68
7.06803e-72
3.48431e-70
5.35926e-74
3.97132e-72
3.20457e-76
3.71055e-74
1.74316e-78
2.72127e-76
5.80993e-81
1.46701e-78
9.77002e-84
5.15896e-81
2.95414e-87
9.17834e-84
4.00273e-87
-3.30616e-33
5.84479e-33
-1.6381e-32
4.27444e-32
-2.48627e-32
7.24286e-32
-1.31962e-32
5.9221e-32
-2.72386e-33
1.05706e-32
-2.45215e-34
9.14282e-34
-9.14789e-36
1.09626e-35
-1.55615e-36
-1.38656e-36
-3.64166e-37
-1.22843e-36
-3.09024e-37
-3.85023e-37
-2.40373e-37
-4.45747e-37
-1.1615e-37
-4.07815e-37
-2.8163e-38
-2.05798e-37
-3.18934e-39
-5.84948e-38
-1.43245e-40
-8.77443e-39
-1.26158e-42
-6.61977e-40
1.67639e-43
-2.66424e-41
3.11669e-44
-9.04892e-43
1.78384e-45
-9.92652e-44
3.98234e-47
-2.52773e-45
4.72224e-49
-2.95829e-47
4.29417e-51
-2.30112e-49
3.72822e-53
-1.5113e-51
3.06096e-55
-8.54849e-54
1.8152e-57
-3.11757e-56
2.90336e-60
8.68634e-60
4.67748e-62
4.12774e-61
5.93878e-64
1.04714e-62
7.16796e-66
1.99005e-64
7.72449e-68
3.16866e-66
7.19083e-70
4.30656e-68
6.2434e-72
4.95411e-70
4.44972e-74
4.71947e-72
2.38039e-76
3.57361e-74
8.62409e-79
2.01976e-76
1.71302e-81
7.69761e-79
1.68207e-84
1.6046e-81
1.0447e-84
-6.0712e-32
1.18058e-31
-3.58873e-31
9.5291e-31
-6.1519e-31
1.80997e-30
-3.65288e-31
1.57764e-30
-8.63582e-32
3.26984e-31
-8.77362e-33
3.13861e-32
-5.95765e-34
2.67326e-34
-1.92818e-34
-1.42643e-34
-3.74278e-35
-1.61487e-34
-2.45268e-35
-4.54762e-35
-1.67693e-35
-3.9401e-35
-7.39524e-36
-3.22828e-35
-1.72281e-36
-1.54154e-35
-1.92807e-37
-4.26517e-36
-8.71812e-39
-6.38816e-37
-6.96468e-41
-4.93787e-38
1.14924e-41
-2.09427e-39
2.07086e-42
-6.86655e-41
1.26838e-43
-7.04766e-42
3.12547e-45
-1.9511e-43
4.03113e-47
-2.50424e-45
3.85013e-49
-2.08096e-47
3.42173e-51
-1.42432e-49
2.85647e-53
-8.31195e-52
1.75381e-55
-3.17695e-54
2.56925e-58
7.59734e-58
4.11239e-60
4.23566e-59
5.32336e-62
1.092e-60
6.48875e-64
2.09728e-62
7.07731e-66
3.37106e-64
7.36369e-68
4.63176e-66
6.74558e-70
5.4192e-68
4.99021e-72
5.2747e-70
2.81059e-74
4.1126e-72
1.09919e-76
2.42795e-74
2.48963e-79
9.91521e-77
3.1684e-82
2.34416e-79
2.02424e-82
-9.19925e-31
1.87222e-30
-6.70943e-30
1.76763e-29
-1.32125e-29
3.81364e-29
-9.0228e-30
3.56221e-29
-2.56402e-30
8.91566e-30
-3.42492e-31
9.89423e-31
-6.66821e-32
2.43448e-33
-2.44324e-32
-4.36635e-32
-3.44821e-33
-3.48616e-32
-1.61553e-33
-5.07156e-33
-9.57516e-34
-2.82248e-33
-3.87867e-34
-2.06369e-33
-8.68482e-35
-9.33088e-34
-9.58093e-36
-2.51754e-34
-4.31511e-37
-3.7704e-35
-2.5824e-39
-2.98969e-36
6.9983e-40
-1.33776e-37
1.18163e-40
-4.38102e-39
7.68576e-42
-4.2306e-40
2.08261e-43
-1.27043e-41
2.92837e-45
-1.78945e-43
2.95741e-47
-1.59664e-45
2.71174e-49
-1.14579e-47
2.31456e-51
-6.93271e-50
1.46823e-53
-2.7704e-52
2.01534e-56
5.79144e-56
3.24656e-58
3.75624e-57
4.27306e-60
9.86696e-59
5.27216e-62
1.91976e-60
6.11073e-64
3.12364e-62
6.82063e-66
4.35707e-64
6.43649e-68
5.19329e-66
4.93401e-70
5.16818e-68
2.91234e-72
4.15012e-70
1.21593e-74
2.5531e-72
3.05219e-77
1.10781e-74
4.58194e-80
2.89341e-77
3.02549e-80
-1.22103e-29
2.49613e-29
-1.20149e-28
3.01477e-28
-2.9394e-28
7.86828e-28
-2.54379e-28
8.18729e-28
-9.74543e-29
2.86774e-28
-2.33779e-29
4.04826e-29
-1.15757e-29
-1.67632e-30
-2.96562e-30
-1.66534e-29
-2.35722e-31
-3.94454e-30
-8.57677e-32
-2.97321e-31
-4.58529e-32
-1.62672e-31
-1.72018e-32
-1.09818e-31
-3.70443e-33
-4.71235e-32
-4.01796e-34
-1.24257e-32
-1.77918e-35
-1.86425e-33
-3.98156e-38
-1.51873e-34
3.83217e-38
-7.19551e-36
5.94692e-39
-2.41418e-37
4.08039e-40
-2.21022e-38
1.21168e-41
-7.17448e-40
1.86061e-43
-1.10943e-41
1.99846e-45
-1.06737e-43
1.90341e-47
-8.07465e-46
1.66915e-49
-5.0863e-48
1.09438e-51
-2.1213e-50
1.44191e-54
4.03473e-54
2.35026e-56
2.97924e-55
3.14795e-58
7.98331e-57
3.94228e-60
1.57738e-58
5.025e-62
2.60506e-60
5.76311e-64
3.70343e-62
5.59682e-66
4.5026e-64
4.44178e-68
4.5888e-66
2.73826e-70
3.79689e-68
1.21091e-72
2.42961e-70
3.30648e-75
1.11297e-72
5.54938e-78
3.15406e-75
3.81192e-78
-1.6939e-28
3.22784e-28
-2.54983e-27
5.71745e-27
-8.29686e-27
1.94994e-26
-9.24429e-27
2.33521e-26
-5.23509e-27
1.3904e-26
-2.35535e-27
2.24937e-27
-9.34206e-28
-6.15232e-28
-1.00406e-28
-8.16003e-28
-7.74546e-30
-6.92544e-29
-3.57254e-30
-9.86761e-30
-1.86918e-30
-7.81053e-30
-6.56562e-31
-4.96275e-30
-1.36127e-31
-2.02898e-30
-1.44744e-32
-5.24328e-31
-6.19141e-34
-7.89903e-32
3.43824e-36
-6.62535e-33
1.88844e-36
-3.32163e-34
2.6843e-37
-1.16455e-35
1.9349e-38
-1.02356e-36
6.27908e-40
-3.58499e-38
1.05436e-41
-6.08847e-40
1.21002e-43
-6.33757e-42
1.20437e-45
-5.07675e-44
1.09109e-47
-3.34247e-46
7.39661e-50
-1.45427e-48
9.5788e-53
2.66855e-52
1.58751e-54
2.16295e-53
2.16784e-56
5.91979e-55
2.84699e-58
1.1909e-56
3.84713e-60
2.00447e-58
4.53493e-62
2.90963e-60
4.53556e-64
3.61683e-62
3.72468e-66
3.78141e-64
2.39251e-68
3.22599e-66
1.11425e-70
2.1444e-68
3.26672e-73
1.03204e-70
5.94752e-76
3.13357e-73
4.23721e-76
-2.44999e-27
4.44538e-27
-5.25351e-26
1.10433e-25
-2.33222e-25
4.92553e-25
-3.62649e-25
7.50197e-25
-1.91503e-25
5.29092e-25
-8.22092e-26
6.92692e-26
-1.37479e-26
-1.80581e-26
-9.64674e-28
-5.20365e-27
-1.94974e-28
-6.053e-28
-1.25975e-28
-3.4651e-28
-6.61603e-29
-3.25688e-28
-2.18302e-29
-1.93125e-28
-4.36284e-30
-7.55081e-29
-4.53131e-31
-1.91903e-29
-1.8242e-32
-2.91206e-30
3.64336e-34
-2.52289e-31
8.32567e-35
-1.33246e-32
1.10043e-35
-4.96227e-34
8.31187e-37
-4.25945e-35
2.94149e-38
-1.60922e-36
5.40804e-40
-3.00335e-38
6.65662e-42
-3.39216e-40
6.95643e-44
-2.88726e-42
6.54307e-46
-1.993e-44
4.58544e-48
-9.04482e-47
5.97533e-51
1.71733e-50
1.01343e-52
1.45988e-51
1.41251e-54
4.08582e-53
1.99966e-56
8.3912e-55
2.78e-58
1.44524e-56
3.37058e-60
2.14631e-58
3.47573e-62
2.73432e-60
2.95349e-64
2.93789e-62
1.97363e-66
2.58622e-64
9.63967e-69
1.7843e-66
3.00572e-71
8.98899e-69
5.82164e-74
2.89745e-71
4.28636e-74
-4.5374e-26
7.49333e-26
-1.01147e-24
2.02045e-24
-4.34515e-24
8.80633e-24
-6.29908e-24
1.25778e-23
-2.54358e-24
8.02872e-24
-5.88974e-25
6.27417e-25
-5.67912e-26
-7.0427e-26
-7.50057e-27
-1.98676e-26
-5.54513e-27
-1.02978e-26
-4.20291e-27
-1.35703e-26
-2.05802e-27
-1.19135e-26
-6.37881e-28
-6.56182e-27
-1.22977e-28
-2.45719e-27
-1.24122e-29
-6.15731e-28
-4.50095e-31
-9.43478e-29
2.07307e-32
-8.47279e-30
3.2923e-33
-4.6977e-31
4.13894e-34
-1.89016e-32
3.27025e-35
-1.61063e-33
1.26006e-36
-6.56722e-35
2.54036e-38
-1.34813e-36
3.36506e-40
-1.65671e-38
3.70396e-42
-1.50204e-40
3.62957e-44
-1.0886e-42
2.63263e-46
-5.14831e-45
3.5353e-49
1.09134e-48
6.15558e-51
9.26611e-50
8.78556e-53
2.65487e-51
1.33567e-54
5.58138e-53
1.91405e-56
9.86521e-55
2.391e-58
1.50308e-56
2.54518e-60
1.96723e-58
2.23863e-62
2.17618e-60
1.55476e-64
1.97855e-62
7.93987e-67
1.41615e-64
2.61498e-69
7.44804e-67
5.31972e-72
2.53168e-69
4.03394e-72
-8.20362e-25
1.227e-24
-1.46484e-23
2.759e-23
-4.5782e-23
9.31913e-23
-4.44346e-23
9.96104e-23
-1.23248e-23
3.64881e-23
-1.4051e-24
1.8532e-24
-2.09459e-25
-2.10271e-25
-1.86849e-25
-1.94114e-25
-1.77089e-25
-4.0254e-25
-1.28821e-25
-5.14241e-25
-5.67872e-26
-3.99064e-25
-1.65488e-26
-2.03216e-25
-3.07507e-27
-7.25642e-26
-2.98939e-28
-1.78536e-26
-8.94317e-30
-2.75171e-27
8.99518e-31
-2.55577e-28
1.1766e-31
-1.47386e-29
1.44183e-32
-6.50567e-31
1.18926e-33
-5.59177e-32
4.98233e-35
-2.46137e-33
1.10359e-36
-5.56435e-35
1.57905e-38
-7.46318e-37
1.83415e-40
-7.22132e-39
1.87308e-42
-5.4888e-41
1.40425e-44
-2.69278e-43
1.99678e-47
6.86576e-47
3.57972e-49
5.5755e-48
5.24884e-51
1.63728e-49
8.54476e-53
3.53304e-51
1.26485e-54
6.42729e-53
1.63097e-56
1.00747e-54
1.79468e-58
1.35794e-56
1.63498e-60
1.54952e-58
1.17964e-62
1.4566e-60
6.28554e-65
1.08149e-62
2.17581e-67
5.92705e-65
4.61067e-70
2.11441e-67
3.58949e-70
-1.13809e-23
1.65692e-23
-1.21249e-22
2.35455e-22
-2.37979e-22
5.32306e-22
-1.38991e-22
4.35012e-22
-2.65027e-23
7.50223e-23
-3.63143e-24
2.67677e-24
-4.51571e-24
-2.2447e-24
-6.83214e-24
-8.80941e-24
-5.79583e-24
-1.91724e-23
-3.53558e-24
-1.90751e-23
-1.41135e-24
-1.3212e-23
-3.87154e-25
-6.2016e-24
-6.91823e-26
-2.11015e-24