/*--------------------------------*- C++ -*----------------------------------*\
  =========                 |
  \\      /  F ield         | OpenFOAM: The Open Source CFD Toolbox
   \\    /   O peration     | Website:  https://openfoam.org
    \\  /    A nd           | Version:  7
     \\/     M anipulation  |
\*---------------------------------------------------------------------------*/
FoamFile
{
    version     2.0;
    format      ascii;
    class       volScalarField;
    location    "0.35";
    object      epsilon;
}
// * * * * * * * * * * * * * * * * * * * * * * * * * * * * * * * * * * * * * //

dimensions      [0 2 -3 0 0 0 0];

internalField   nonuniform List<scalar> 
9072
(
0.0304153
0.103538
0.197706
0.288959
0.373672
0.452403
0.525606
0.595978
0.665597
0.736203
0.809157
0.885421
0.965576
1.04986
1.13821
1.23028
1.32551
1.42309
1.52208
1.62134
1.7196
1.81548
1.90747
1.99399
2.07337
2.14391
2.2039
2.25163
2.28545
2.30371
2.3047
2.28541
2.25422
2.20655
2.14001
2.05368
1.94764
1.82346
1.68567
1.54343
1.40557
1.30549
1.12986
0.930861
0.788075
0.617038
0.039447
0.0662449
0.1048
0.143318
0.176769
0.206181
0.23306
0.258492
0.283362
0.308373
0.334057
0.360793
0.388823
0.418272
0.449161
0.481418
0.51489
0.54935
0.584506
0.620006
0.655452
0.6904
0.72437
0.75686
0.78735
0.815322
0.840273
0.861741
0.879331
0.892745
0.901837
0.906703
0.912898
0.919342
0.926695
0.936579
0.951435
0.974334
1.00839
1.05507
1.10555
1.13278
1.04412
0.794075
0.599207
0.683922
0.0506972
0.0643722
0.0935793
0.121145
0.144743
0.165157
0.183375
0.20025
0.216483
0.23262
0.249058
0.266075
0.28385
0.302478
0.321987
0.342344
0.363466
0.385223
0.407444
0.429922
0.45242
0.474674
0.4964
0.517302
0.537081
0.555446
0.572132
0.586917
0.599654
0.610303
0.618995
0.626224
0.634273
0.644144
0.657277
0.675905
0.703227
0.743603
0.802558
0.885624
0.989899
1.08122
1.07711
0.908143
0.733427
1.00603
0.0587634
0.0693848
0.0935654
0.116044
0.135436
0.152117
0.16682
0.180263
0.193053
0.205659
0.218422
0.231572
0.245259
0.259559
0.274498
0.290052
0.30616
0.322725
0.33962
0.356692
0.373765
0.390645
0.407125
0.422992
0.438034
0.452056
0.464887
0.47641
0.486581
0.495471
0.503329
0.510737
0.519158
0.5299
0.544644
0.565744
0.596405
0.640874
0.704525
0.793087
0.906494
1.01711
1.05541
0.98153
0.893116
1.37668
0.0700797
0.0769895
0.0973872
0.116475
0.13309
0.147442
0.160086
0.171615
0.182546
0.193281
0.204109
0.215229
0.226761
0.238772
0.251276
0.264254
0.277653
0.291391
0.305363
0.319444
0.33349
0.347344
0.360841
0.373814
0.386101
0.397558
0.408073
0.417587
0.426118
0.433803
0.44096
0.448202
0.456725
0.46788
0.483409
0.505649
0.53765
0.583271
0.647149
0.733986
0.844241
0.958059
1.02451
1.02773
1.06216
1.83696
0.0823957
0.0858118
0.10303
0.119299
0.133641
0.146186
0.157351
0.167605
0.177366
0.186965
0.19664
0.206552
0.2168
0.227432
0.238458
0.249855
0.261574
0.273541
0.285666
0.297839
0.309938
0.321829
0.333375
0.344439
0.354893
0.364629
0.373574
0.381709
0.389098
0.395923
0.402544
0.409597
0.418167
0.429598
0.445629
0.468532
0.501173
0.547023
0.610002
0.693773
0.798716
0.911614
1.00037
1.06825
1.2223
2.3075
0.09426
0.0948204
0.109332
0.123114
0.135457
0.14647
0.156459
0.165776
0.174739
0.183602
0.19255
0.201706
0.211143
0.220894
0.230959
0.241312
0.251906
0.262673
0.273531
0.284383
0.29512
0.305629
0.31579
0.325491
0.334628
0.34312
0.350926
0.358057
0.364612
0.370807
0.377035
0.383943
0.392563
0.404221
0.420627
0.443974
0.476962
0.522739
0.584687
0.665742
0.766341
0.878644
0.986576
1.1101
1.37359
2.77304
0.105087
0.103249
0.115475
0.127086
0.137675
0.147373
0.156402
0.165007
0.173411
0.181791
0.190277
0.198955
0.207871
0.217043
0.226461
0.236097
0.245903
0.255816
0.265759
0.275645
0.285379
0.29486
0.303986
0.312661
0.320804
0.328357
0.3353
0.341674
0.347604
0.353334
0.35928
0.366099
0.374789
0.386654
0.403368
0.427046
0.460247
0.505889
0.567004
0.646161
0.744176
0.857616
0.983071
1.1548
1.51823
3.24752
0.11471
0.110662
0.120921
0.13068
0.139781
0.148384
0.156645
0.164718
0.172737
0.18081
0.189014
0.197399
0.205987
0.214778
0.223756
0.232888
0.242125
0.251408
0.260667
0.269822
0.278788
0.287476
0.295799
0.303676
0.311044
0.317864
0.324138
0.329929
0.335385
0.340773
0.346525
0.353306
0.362089
0.374153
0.391134
0.415077
0.448432
0.493968
0.554545
0.632674
0.729866
0.846414
0.988691
1.20304
1.65954
3.78724
0.123267
0.116901
0.125387
0.133589
0.141473
0.149207
0.156887
0.164586
0.172361
0.180259
0.188311
0.196532
0.204923
0.21347
0.222148
0.23092
0.239739
0.248548
0.257281
0.265867
0.274229
0.282289
0.289972
0.297213
0.303963
0.3102
0.315946
0.321284
0.32638
0.331519
0.33715
0.343936
0.352832
0.365093
0.382313
0.406478
0.43996
0.485448
0.545775
0.623644
0.721504
0.842912
1.00187
1.25496
1.79752
4.29594
0.130658
0.121974
0.12879
0.135682
0.142606
0.149691
0.156966
0.164431
0.17208
0.179905
0.187899
0.196049
0.204335
0.212732
0.221208
0.229722
0.238229
0.246673
0.254994
0.263127
0.271004
0.278557
0.285722
0.292446
0.298695
0.304464
0.30979
0.314773
0.319598
0.324565
0.330131
0.33696
0.345988
0.358443
0.375882
0.400237
0.433829
0.479322
0.539632
0.617833
0.717496
0.845143
1.02099
1.31077
1.93765
4.83503
0.136967
0.126008
0.131188
0.136963
0.143152
0.149785
0.156811
0.164162
0.171778
0.179609
0.187614
0.195756
0.204001
0.212314
0.220656
0.228986
0.237255
0.245414
0.253407
0.261173
0.268654
0.27579
0.282529
0.288829
0.294669
0.300058
0.30505
0.309759
0.314386
0.319242
0.324792
0.331697
0.340872
0.353521
0.37116
0.39568
0.429362
0.474889
0.535331
0.614255
0.716468
0.851287
1.0444
1.37064
2.08701
5.43032
0.142527
0.129185
0.132718
0.137524
0.143162
0.149505
0.156409
0.163742
0.171396
0.179287
0.18735
0.195528
0.203776
0.212049
0.220305
0.2285
0.236588
0.24452
0.252245
0.259711
0.266864
0.273654
0.280039
0.285988
0.291492
0.296574
0.301301
0.305802
0.31029
0.315087
0.320663
0.327673
0.337011
0.349855
0.367681
0.392339
0.426087
0.471643
0.532274
0.612096
0.717198
0.8596
1.07022
1.43431
2.25486
6.11353
0.147625
0.131704
0.133558
0.137508
0.142734
0.148911
0.155786
0.163166
0.170905
0.178892
0.18704
0.195281
0.203558
0.21182
0.220021
0.228117
0.236062
0.243811
0.251316
0.258531
0.26541
0.27191
0.278
0.283657
0.288886
0.293721
0.298241
0.302589
0.306989
0.311774
0.317413
0.324555
0.334074
0.347116
0.36512
0.389893
0.423673
0.469219
0.530001
0.610681
0.71859
0.868325
1.09604
1.50017
2.45078
6.92747
0.152605
0.133769
0.133897
0.137075
0.141991
0.148081
0.154983
0.162449
0.170297
0.178396
0.186643
0.194958
0.203277
0.211544
0.219711
0.227731
0.235561
0.243158
0.250479
0.257483
0.26413
0.270387
0.276229
0.281646
0.28665
0.291288
0.295651
0.299894
0.304252
0.309064
0.314801
0.322104
0.331823
0.345072
0.363249
0.38812
0.421894
0.467365
0.528178
0.609477
0.719683
0.875671
1.11852
1.56293
2.66945
7.92573
0.157867
0.135567
0.133913
0.136387
0.141054
0.1471
0.154054
0.161615
0.169576
0.177786
0.186131
0.194521
0.202886
0.211166
0.219309
0.227269
0.235003
0.242472
0.249637
0.256461
0.262912
0.268962
0.274597
0.279815
0.284639
0.289124
0.293374
0.297553
0.301908
0.306785
0.312654
0.320145
0.330088
0.343559
0.361912
0.386868
0.420602
0.465915
0.526579
0.608099
0.719704
0.879926
1.13341
1.60982
2.86102
9.27529
0.057903
0.151054
0.221115
0.269259
0.304343
0.331566
0.353629
0.372079
0.386505
0.396458
0.402187
0.403951
0.402082
0.396994
0.389177
0.379181
0.367326
0.354484
0.341967
0.329851
0.318329
0.307526
0.297474
0.288111
0.279301
0.271008
0.263097
0.254963
0.246145
0.236181
0.224554
0.210667
0.193813
0.173128
0.147513
0.115541
0.0767272
0.0399583
0.0185032
0.113421
0.154534
0.178084
0.192457
0.202439
0.210252
0.216823
0.221908
0.224902
0.225822
0.224803
0.222047
0.217819
0.212427
0.206193
0.199306
0.192247
0.185687
0.17961
0.174051
0.169022
0.164488
0.160375
0.156584
0.153103
0.149767
0.146233
0.142217
0.13744
0.13159
0.124311
0.115185
0.103719
0.0893244
0.0712451
0.0478276
0.0160574
0.110027
0.114293
0.140858
0.155716
0.163563
0.168411
0.172074
0.175135
0.177238
0.177956
0.177247
0.175208
0.172001
0.167843
0.16298
0.15766
0.152046
0.146495
0.141444
0.136892
0.132849
0.129305
0.126218
0.123517
0.121116
0.118961
0.11692
0.11475
0.112234
0.109151
0.105255
0.10027
0.0938761
0.0857155
0.0753919
0.0624314
0.0453822
0.0179405
0.155483
0.123335
0.140782
0.151273
0.156114
0.158559
0.160171
0.16139
0.161812
0.161116
0.159261
0.156341
0.152516
0.147989
0.142985
0.137719
0.132345
0.127178
0.122532
0.118419
0.114841
0.111779
0.10919
0.107006
0.105142
0.103523
0.102029
0.100468
0.0986541
0.0963956
0.0934831
0.0896824
0.0847345
0.078366
0.070321
0.0604362
0.0485811
0.0185437
0.201654
0.137002
0.147574
0.155215
0.158214
0.159126
0.159322
0.159175
0.158249
0.156303
0.153327
0.149432
0.144792
0.139614
0.134116
0.128504
0.122921
0.117671
0.112992
0.108897
0.105381
0.102422
0.0999729
0.097966
0.0963165
0.0949371
0.0937125
0.0924758
0.0910602
0.0892924
0.0869861
0.0839384
0.0799347
0.0747692
0.0683062
0.0606755
0.0530724
0.0185478
0.251204
0.154812
0.159525
0.164859
0.16638
0.166028
0.164985
0.163576
0.161327
0.158077
0.15386
0.148822
0.143161
0.137099
0.130858
0.124636
0.118573
0.112978
0.108025
0.103721
0.100057
0.0970052
0.0945142
0.0925137
0.0909165
0.0896278
0.0885328
0.0874785
0.0863094
0.0848654
0.0829773
0.0804671
0.077157
0.072899
0.0676604
0.0618143
0.0576519
0.0820473
0.3068
0.177207
0.17633
0.179402
0.179421
0.1778
0.175508
0.172769
0.169089
0.16438
0.158732
0.152339
0.145434
0.138263
0.131055
0.124008
0.117259
0.11113
0.105734
0.10107
0.0971198
0.0938479
0.0911987
0.0890972
0.0874521
0.0861622
0.0851117
0.0841541
0.0831413
0.0819224
0.0803421
0.0782432
0.0754795
0.071953
0.0677179
0.0633355
0.0617022
0.0925001
0.371674
0.205231
0.198307
0.19877
0.197001
0.193944
0.190303
0.186068
0.180769
0.174381
0.16706
0.159061
0.150664
0.142144
0.133746
0.125669
0.118048
0.111222
0.105243
0.100095
0.0957487
0.0921595
0.0892645
0.0869824
0.0852166
0.0838598
0.0827931
0.0818727
0.0809548
0.0798951
0.0785495
0.0767787
0.074464
0.0715505
0.0681659
0.0650214
0.0654974
0.103216
0.450119
0.240592
0.226213
0.223284
0.219208
0.214426
0.209256
0.203313
0.196154
0.18781
0.178524
0.168624
0.158451
0.148317
0.138487
0.129159
0.120488
0.112808
0.106111
0.100363
0.095522
0.0915294
0.0883128
0.0857832
0.0838367
0.0823593
0.0812278
0.0802983
0.0794287
0.0784794
0.0773154
0.0758127
0.0738764
0.071489
0.06884
0.0667672
0.0690879
0.113482
0.548049
0.285956
0.261295
0.253619
0.246457
0.239541
0.232597
0.22469
0.215366
0.204729
0.193122
0.18097
0.168687
0.156633
0.145095
0.134276
0.124366
0.115664
0.10811
0.101647
0.0962114
0.0917316
0.0881217
0.0852821
0.0831003
0.0814544
0.0802156
0.0792374
0.0783776
0.0774996
0.0764754
0.0751941
0.0735813
0.0716516
0.0696476
0.0685187
0.0724977
0.12327
0.673843
0.345562
0.305582
0.290958
0.279583
0.269964
0.260915
0.250699
0.238814
0.225452
0.211082
0.196247
0.181451
0.167113
0.15355
0.140961
0.129603
0.119695
0.111133
0.103827
0.0976939
0.09264
0.0885638
0.0853522
0.082882
0.0810219
0.0796357
0.0785727
0.0776886
0.0768483
0.0759291
0.0748305
0.073496
0.0719678
0.0705346
0.0702479
0.0757438
0.132634
0.839708
0.426332
0.362552
0.337436
0.32015
0.306955
0.295285
0.282234
0.267229
0.250559
0.232849
0.214784
0.196976
0.179913
0.16394
0.14926
0.136209
0.124887
0.115143
0.106855
0.0999083
0.0941863
0.0895664
0.0859186
0.0831057
0.0809858
0.0794131
0.0782305
0.0772904
0.0764573
0.0756122
0.0746631
0.0735682
0.0723934
0.0714686
0.0719408
0.0788419
0.141636
1.06355
0.539406
0.438527
0.397101
0.371097
0.352796
0.337543
0.32077
0.301777
0.280962
0.259122
0.237105
0.215645
0.195301
0.17645
0.159299
0.144262
0.131281
0.120155
0.110723
0.102833
0.0963386
0.0910904
0.0869373
0.083725
0.0812982
0.0794995
0.0781632
0.0771365
0.0762821
0.0754829
0.0746533
0.0737638
0.0729006
0.0724308
0.0735926
0.0818079
0.150333
1.37137
0.701583
0.545458
0.477889
0.437934
0.411556
0.390762
0.368662
0.344266
0.318033
0.29093
0.263972
0.238012
0.213675
0.191355
0.17128
0.153901
0.138966
0.126222
0.115457
0.106474
0.099088
0.0931172
0.0883833
0.0847109
0.0819281
0.0798629
0.0783386
0.0771954
0.0762923
0.0755126
0.0747753
0.0740605
0.0734721
0.073411
0.075204
0.0846596
0.158782
1.80299
0.933343
0.706676
0.595553
0.530873
0.490396
0.45998
0.429623
0.39745
0.36381
0.329768
0.296469
0.264854
0.235583
0.209025
0.185498
0.165319
0.148072
0.133427
0.121105
0.110854
0.10244
0.0956402
0.0902419
0.0860433
0.0828526
0.0804797
0.0787331
0.0774437
0.0764657
0.0756808
0.0750104
0.0744426
0.0740964
0.0744041
0.0767804
0.0874195
0.167046
2.52571
1.28767
0.969164
0.781021
0.668187
0.60084
0.553181
0.509352
0.465444
0.421264
0.377767
0.336108
0.297234
0.261764
0.229981
0.20232
0.178774
0.158772
0.14188
0.127734
0.116011
0.106411
0.0986601
0.0925037
0.0877066
0.0840529
0.0813301
0.0793266
0.0778621
0.0767838
0.0759702
0.0753436
0.0748978
0.0747651
0.075408
0.0783301
0.0901184
0.175206
0.16458
0.13758
0.133722
0.135332
0.139676
0.145643
0.152638
0.160302
0.168391
0.176734
0.185198
0.193682
0.202106
0.210401
0.218514
0.226396
0.234007
0.241309
0.24827
0.25486
0.261056
0.266842
0.272213
0.277181
0.281783
0.286089
0.290216
0.294345
0.298737
0.303748
0.309851
0.317661
0.327974
0.341809
0.360448
0.385526
0.41914
0.464064
0.524154
0.605226
0.717175
0.87959
1.13795
1.61903
2.74147
5.84417
0.176931
0.140791
0.133558
0.133949
0.137802
0.14357
0.15051
0.158198
0.166356
0.174784
0.183332
0.191883
0.200343
0.208636
0.216702
0.224492
0.231964
0.239087
0.245834
0.252186
0.258129
0.263659
0.268786
0.273537
0.277963
0.282149
0.286227
0.290395
0.29493
0.300202
0.306683
0.314966
0.325797
0.34011
0.359065
0.384148
0.41729
0.461089
0.519205
0.597161
0.704091
0.857002
1.09174
1.49409
2.28429
3.96682
0.19271
0.144943
0.134261
0.133291
0.136412
0.141726
0.148379
0.155896
0.163963
0.17235
0.180883
0.189423
0.197863
0.206117
0.214117
0.221812
0.229161
0.236134
0.242713
0.248883
0.254641
0.259992
0.264958
0.269579
0.273916
0.278062
0.282156
0.286407
0.291104
0.296631
0.303455
0.312145
0.32339
0.338027
0.357088
0.381864
0.414061
0.455987
0.510883
0.583523
0.68141
0.817397
1.01563
1.3256
1.85338
2.77158
0.211978
0.15047
0.136276
0.133647
0.135665
0.140194
0.146302
0.153452
0.16128
0.169513
0.177942
0.186404
0.194775
0.202956
0.210873
0.218469
0.225704
0.232552
0.238996
0.24503
0.250656
0.255888
0.260756
0.265309
0.269618
0.273778
0.277925
0.282269
0.287111
0.292841
0.299925
0.308903
0.3204
0.335152
0.354048
0.378171
0.408969
0.448405
0.499216
0.565301
0.652429
0.769659
0.932167
1.16663
1.51933
2.03439
0.233337
0.157376
0.139686
0.134969
0.135458
0.138896
0.144257
0.150911
0.15841
0.166421
0.174692
0.183034
0.191302
0.199388
0.20721
0.214708
0.221841
0.228583
0.234924
0.24086
0.246398
0.251557
0.256375
0.260908
0.265234
0.269444
0.273669
0.278109
0.283071
0.288953
0.296211
0.305349
0.316929
0.331585
0.350059
0.37325
0.402336
0.438946
0.485324
0.544554
0.62091
0.720545
0.852645
1.03087
1.27344
1.58638
0.253383
0.165257
0.144219
0.136923
0.135524
0.137697
0.142246
0.148381
0.155538
0.163313
0.171409
0.179613
0.187763
0.195744
0.203468
0.210871
0.217913
0.224571
0.230836
0.236707
0.242195
0.24732
0.252123
0.256671
0.261043
0.26533
0.269649
0.274198
0.279283
0.285303
0.292686
0.301891
0.313413
0.327793
0.345652
0.367752
0.395034
0.428825
0.470933
0.523731
0.590288
0.674693
0.782389
0.920065
1.094
1.30104
0.26702
0.173145
0.148989
0.138827
0.135491
0.136488
0.140337
0.146034
0.152897
0.160456
0.168384
0.176446
0.184474
0.192345
0.19997
0.207285
0.21425
0.220843
0.227058
0.232896
0.238367
0.243493
0.24832
0.252914
0.257354
0.261723
0.266142
0.270819
0.276081
0.282297
0.289832
0.299072
0.310435
0.324406
0.341552
0.36255
0.388204
0.419567
0.458035
0.505336
0.563565
0.635417
0.724118
0.832756
0.962824
1.10991
0.269451
0.179274
0.152277
0.139742
0.135029
0.135271
0.138674
0.144075
0.150718
0.158101
0.165881
0.173815
0.181731
0.189505
0.197046
0.204291
0.211206
0.217771
0.223978
0.229828
0.235325
0.240496
0.245389
0.25007
0.2546
0.259039
0.263518
0.268301
0.2738
0.280353
0.288187
0.297558
0.308707
0.322116
0.338446
0.358444
0.382886
0.412579
0.448459
0.49153
0.543079
0.604961
0.679099
0.766703
0.8675
0.977819
0.260675
0.182442
0.153022
0.139467
0.134349
0.134332
0.137532
0.14276
0.149257
0.15652
0.1642
0.172049
0.179892
0.187603
0.195088
0.20229
0.209187
0.215759
0.222002
0.227905
0.233465
0.238709
0.2437
0.248519
0.253193
0.257689
0.262138
0.266909
0.272683
0.279844
0.288332
0.298273
0.309362
0.322099
0.337431
0.356535
0.380275
0.409218
0.443654
0.483591
0.529961
0.584353
0.64754
0.719567
0.799844
0.885836
0.250795
0.187873
0.153786
0.13942
0.134335
0.134258
0.137395
0.142588
0.14908
0.156361
0.16407
0.171946
0.17981
0.187555
0.195079
0.202318
0.209276
0.215879
0.222149
0.22808
0.233673
0.238956
0.243998
0.24888
0.253606
0.258125
0.262605
0.267472
0.2735
0.280741
0.289118
0.298769
0.310621
0.324783
0.339729
0.358176
0.38199
0.411974
0.446731
0.483864
0.525823
0.574912
0.629571
0.689206
0.754477
0.823624
0.339261
0.209345
0.160179
0.143813
0.13825
0.13817
0.141318
0.146582
0.153277
0.160934
0.169237
0.178099
0.187677
0.198106
0.207347
0.217187
0.226665
0.23627
0.245532
0.254642
0.26366
0.27259
0.281458
0.290313
0.29922
0.308259
0.317524
0.327206
0.337395
0.347663
0.356842
0.362515
0.359537
0.333415
0.341826
0.359357
0.382875
0.413759
0.452117
0.49137
0.535408
0.583285
0.629475
0.677244
0.730794
0.787583
0.69976
0.329314
0.258252
0.224389
0.207203
0.200367
0.19748
0.197088
0.198714
0.202006
0.206643
0.212349
0.218904
0.226114
0.233778
0.241868
0.250279
0.25901
0.267977
0.277177
0.286631
0.296352
0.30636
0.316691
0.327411
0.33863
0.350479
0.363142
0.376808
0.391364
0.406
0.418949
0.428243
0.436343
0.452261
0.474338
0.495324
0.504648
0.482986
0.496967
0.53742
0.589902
0.638024
0.683351
0.732137
0.780514
0.894438
0.417265
0.321748
0.271691
0.249645
0.23902
0.233096
0.229851
0.228705
0.229398
0.231706
0.235398
0.240259
0.246097
0.252721
0.259988
0.267804
0.276098
0.28482
0.293922
0.303402
0.31329
0.323627
0.334457
0.345837
0.35789
0.37084
0.38501
0.400724
0.418044
0.436491
0.454935
0.472442
0.490559
0.513355
0.542142
0.5717
0.594415
0.608714
0.628482
0.657396
0.675821
0.649128
0.685142
0.735634
0.786908
0.841426
0.400718
0.334125
0.297638
0.277308
0.26548
0.258033
0.25328
0.250628
0.24983
0.250703
0.253057
0.2567
0.26145
0.26713
0.273582
0.280696
0.288385
0.296593
0.305267
0.314393
0.323994
0.334119
0.344819
0.356155
0.368263
0.381414
0.395996
0.412377
0.430684
0.450606
0.471428
0.492626
0.515106
0.541436
0.573246
0.608462
0.642866
0.673666
0.704105
0.738579
0.768258
0.786973
0.81325
0.845063
0.813523
0.734398
0.375727
0.327862
0.303071
0.287017
0.276498
0.269546
0.265062
0.262527
0.261687
0.262376
0.26444
0.267724
0.272071
0.27733
0.283362
0.290055
0.29732
0.305096
0.313336
0.322022
0.331173
0.340836
0.351074
0.361969
0.373675
0.386465
0.400717
0.416787
0.434847
0.454751
0.476107
0.498686
0.523111
0.551007
0.583676
0.62051
0.659258
0.697762
0.736742
0.779167
0.821868
0.859171
0.897566
0.939709
0.966087
0.675994
0.371324
0.322244
0.299943
0.28623
0.277402
0.271834
0.268587
0.267133
0.267183
0.268552
0.271101
0.274698
0.279219
0.28454
0.290545
0.297136
0.304232
0.311774
0.319723
0.328063
0.336811
0.346016
0.35575
0.366115
0.377279
0.389501
0.403127
0.418496
0.435827
0.455139
0.476303
0.499287
0.524534
0.553047
0.585741
0.622574
0.662448
0.704071
0.747584
0.794396
0.843267
0.890673
0.938646
0.990376
1.03703
0.669929
0.381629
0.320339
0.294778
0.281032
0.273209
0.268987
0.267178
0.267123
0.268445
0.270914
0.274373
0.278698
0.283777
0.289506
0.295791
0.302548
0.30971
0.317226
0.325066
0.333221
0.341713
0.350594
0.359946
0.369891
0.380603
0.392334
0.405402
0.420139
0.436815
0.455582
0.476502
0.499682
0.52547
0.554506
0.587424
0.624385
0.664922
0.708322
0.754425
0.803663
0.855362
0.907744
0.961038
1.0164
1.06872
0.694219
0.397331
0.320971
0.290015
0.274822
0.267185
0.263845
0.263213
0.264431
0.267004
0.270636
0.275131
0.280346
0.286168
0.292499
0.299254
0.306362
0.313765
0.321424
0.329316
0.337446
0.345841
0.354565
0.363713
0.373421
0.383878
0.395337
0.408108
0.422528
0.438912
0.457517
0.478543
0.502205
0.528828
0.558881
0.592837
0.630924
0.672992
0.718646
0.7676
0.819745
0.874457
0.930435
0.987238
1.04468
1.09949
0.739584
0.414286
0.322796
0.28617
0.268982
0.260959
0.257997
0.258125
0.260288
0.263875
0.268513
0.273955
0.280031
0.28661
0.293588
0.30088
0.308419
0.316153
0.324051
0.332101
0.340316
0.348738
0.357442
0.366541
0.37619
0.386598
0.39803
0.410807
0.425287
0.441832
0.460781
0.482447
0.507139
0.535216
0.567094
0.603183
0.643742
0.688776
0.738057
0.791252
0.847954
0.907404
0.968369
1.02959
1.09001
1.14707
0.799006
0.430292
0.324804
0.28303
0.263807
0.255101
0.252134
0.252635
0.255387
0.25968
0.265068
0.27126
0.278046
0.285276
0.29283
0.300617
0.308567
0.316631
0.324783
0.333019
0.341363
0.349871
0.358633
0.367782
0.377498
0.388014
0.399621
0.412667
0.427542
0.444664
0.464447
0.487302
0.513638
0.543878
0.578465
0.61781
0.662211
0.711763
0.766322
0.825531
0.888801
0.955179
1.02326
1.09135
1.15742
1.21827
0.865593
0.444041
0.326298
0.280216
0.259167
0.249679
0.246473
0.247057
0.250093
0.254796
0.260665
0.267365
0.274656
0.282361
0.290347
0.29851
0.306775
0.315094
0.323443
0.331824
0.340273
0.34886
0.357693
0.366928
0.376773
0.387492
0.399409
0.412911
0.428436
0.446458
0.467472
0.491986
0.520508
0.553554
0.591635
0.635216
0.684651
0.740104
0.801484
0.868409
0.940157
1.01557
1.09298
1.17026
1.24479
1.31282
0.933507
0.454919
0.326913
0.277426
0.254857
0.244611
0.241046
0.241517
0.244608
0.249475
0.25558
0.262553
0.270129
0.27811
0.286346
0.294725
0.303164
0.311614
0.320051
0.328487
0.336967
0.345575
0.35444
0.363745
0.373725
0.384682
0.396981
0.411054
0.427393
0.446539
0.469069
0.495586
0.526707
0.563053
0.605233
0.653796
0.709175
0.771602
0.84103
0.917052
0.998829
1.08499
1.1736
1.26208
1.34726
1.42481
0.998518
0.462845
0.326566
0.274503
0.250733
0.239809
0.235841
0.236084
0.239064
0.243907
0.250044
0.257084
0.26474
0.2728
0.281101
0.289521
0.297974
0.306408
0.314802
0.323175
0.331581
0.340123
0.348951
0.358273
0.368358
0.379547
0.392249
0.406946
0.42419
0.444591
0.468811
0.49755
0.531535
0.571504
0.618176
0.672211
0.734135
0.804258
0.882572
0.968648
1.06154
1.15967
1.2608
1.36195
1.45942
1.54824
1.05788
0.468049
0.325338
0.271407
0.246725
0.235226
0.230855
0.230803
0.233566
0.238245
0.244256
0.25119
0.258752
0.266715
0.274909
0.283206
0.291517
0.299788
0.308003
0.316187
0.324409
0.332787
0.341493
0.350763
0.360902
0.372289
0.385379
0.400707
0.418885
0.440594
0.466579
0.497638
0.534608
0.578348
0.629702
0.689449
0.758224
0.83642
0.924072
1.02073
1.12534
1.23614
1.35058
1.4653
1.57608
1.67731
1.10995
0.470879
0.323373
0.268155
0.242809
0.23084
0.226091
0.225716
0.228193
0.232612
0.238378
0.245076
0.252402
0.260123
0.268064
0.276094
0.284123
0.292098
0.30001
0.307891
0.315823
0.323941
0.332442
0.341589
0.351721
0.363256
0.376694
0.392622
0.41171
0.434707
0.46244
0.495803
0.535742
0.58324
0.639268
0.704735
0.780392
0.866724
0.963811
1.07119
1.1877
1.3114
1.43944
1.56809
1.69266
1.8069
1.15391
0.471685
0.320811
0.264779
0.238979
0.226642
0.221552
0.220848
0.223002
0.227097
0.232537
0.238903
0.245885
0.253252
0.260824
0.268472
0.276104
0.283675
0.29118
0.29866
0.306212
0.313989
0.322209
0.331165
0.341226
0.352847
0.366573
0.383035
0.40296
0.42716
0.45654
0.492085
0.534849
0.585935
0.646449
0.71743
0.799755
0.894003
1.00031
1.1182
1.24642
1.38284
1.52436
1.66688
1.80527
1.9327
1.18946
0.470776
0.317759
0.261301
0.235226
0.222613
0.217227
0.216206
0.218021
0.221758
0.22682
0.232787
0.239352
0.246282
0.253401
0.26058
0.267731
0.274814
0.281832
0.288837
0.295938
0.303307
0.311184
0.319885
0.329811
0.34145
0.355382
0.372283
0.392926
0.418185
0.449032
0.486539
0.531866
0.586235
0.650882
0.726984
0.815545
0.917251
1.03229
1.16019
1.29962
1.44828
1.60281
1.75879
1.9107
2.0512
1.21667
0.468392
0.314283
0.25772
0.231525
0.218724
0.213092
0.211776
0.213255
0.216618
0.221273
0.226803
0.232904
0.239346
0.245955
0.252606
0.259219
0.265758
0.272233
0.27871
0.28531
0.292221
0.299702
0.308094
0.317821
0.329399
0.343441
0.360657
0.381862
0.40798
0.440048
0.479218
0.526746
0.583973
0.652265
0.732939
0.827133
0.935642
1.05873
1.19592
1.34582
1.50596
1.67279
1.84158
2.0065
2.15976
1.23586
0.464726
0.310418
0.254016
0.227836
0.21493
0.209105
0.207526
0.208683
0.211675
0.215914
0.22099
0.226602
0.232527
0.238595
0.244687
0.250728
0.25669
0.262592
0.268509
0.274575
0.280993
0.288039
0.296071
0.305535
0.316969
0.331009
0.348394
0.369972
0.39671
0.429702
0.470171
0.519466
0.579039
0.650389
0.734974
0.83407
0.948596
1.07889
1.22451
1.38399
1.55473
1.73298
1.9138
2.09109
2.25678
1.24749
0.459945
0.306173
0.250156
0.22411
0.211178
0.205215
0.20341
0.204271
0.206905
0.210734
0.215356
0.220476
0.225875
0.231393
0.236914
0.242372
0.247744
0.25306
0.258404
0.263921
0.269824
0.276404
0.284033
0.293171
0.304373
0.318291
0.335684
0.357428
0.384521
0.418106
0.459472
0.510052
0.571408
0.645169
0.732937
0.836139
0.955827
1.09244
1.24555
1.41367
1.59408
1.78285
1.97488
2.16394
2.34186
1.25215
0.454192
0.301542
0.246096
0.220294
0.207412
0.201366
0.199378
0.199973
0.202273
0.20571
0.20989
0.214527
0.21941
0.224383
0.22934
0.23422
0.239009
0.243744
0.248516
0.25348
0.258858
0.264951
0.272139
0.280892
0.291775
0.305449
0.322686
0.344378
0.371553
0.40539
0.447235
0.498603
0.56116
0.636666
0.726875
0.833374
0.957365
1.0994
1.25911
1.43497
1.62417
1.82264
2.02519
2.22562
2.41588
1.25048
0.447587
0.296506
0.241792
0.216335
0.203577
0.197504
0.195376
0.195741
0.197737
0.200808
0.204569
0.208745
0.213131
0.21758
0.221992
0.226315
0.230539
0.23471
0.238925
0.243344
0.248198
0.25379
0.260507
0.268822
0.279303
0.292615
0.309536
0.330967
0.357954
0.391708
0.433627
0.485298
0.548489
0.625094
0.717026
0.826048
0.953534
1.10018
1.26568
1.44851
1.64578
1.85334
2.06597
2.27771
2.48097
1.24321
0.440228
0.291041
0.237203
0.212188
0.199625
0.19358
0.191357
0.191529
0.193255
0.19599
0.199363
0.203106
0.207025
0.210979
0.214878
0.218673
0.222363
0.225997
0.229679
0.233573
0.23791
0.242997
0.249221
0.257054
0.26706
0.279903
0.296361
0.317336
0.343888
0.377251
0.418865
0.470389
0.533689
0.610795
0.70379
0.814633
0.944896
1.09544
1.26608
1.4553
1.66017
1.87648
2.09913
2.32259
2.54022
1.23109
0.432253
0.285123
0.232297
0.207819
0.195517
0.189553
0.187279
0.187298
0.188788
0.191222
0.19424
0.197585
0.201072
0.204569
0.207991
0.211297
0.21449
0.217624
0.220805
0.224199
0.228037
0.232623
0.238341
0.245658
0.25513
0.267415
0.283282
0.303634
0.329533
0.362233
0.40321
0.454187
0.517128
0.594203
0.687678
0.799729
0.932158
1.08604
1.26133
1.45658
1.66883
1.89387
2.12683
2.36292
2.59708
1.21363
0.423105
0.278596
0.227009
0.203189
0.191226
0.185396
0.183112
0.183013
0.184303
0.186471
0.189171
0.192156
0.195251
0.198331
0.201319
0.204179
0.206919
0.209595
0.212313
0.215239
0.218602
0.222701
0.227912
0.234692
0.243587
0.255243
0.270418
0.290009
0.315076
0.346886
0.386944
0.437033
0.499215
0.575802
0.669255
0.781991
0.916082
1.07286
1.25248
1.45359
1.67325
1.90727
2.15113
2.40113
2.65459
1.19131
0.412768
0.271482
0.221345
0.198288
0.186729
0.181083
0.17883
0.178652
0.179777
0.181715
0.184132
0.186796
0.18954
0.192248
0.194847
0.197308
0.199641
0.201904
0.204203
0.2067
0.209619
0.213252
0.217963
0.224198
0.23249
0.243469
0.257879
0.276604
0.3007
0.331439
0.370353
0.419277
0.480365
0.556077
0.64908
0.762057
0.897389
1.05672
1.24046
1.44741
1.67466
1.91809
2.17359
2.43886
2.71458
1.16479
0.401396
0.263855
0.215343
0.193133
0.182032
0.176608
0.174421
0.174197
0.175191
0.176933
0.179106
0.181489
0.183923
0.186302
0.188559
0.190668
0.192643
0.194541
0.196467
0.198577
0.201089
0.204283
0.208514
0.214211
0.221891
0.232166
0.245763
0.263552
0.286577
0.316112
0.353708
0.401244
0.460966
0.535478
0.627661
0.740488
0.876687
1.03827
1.22596
1.43878
1.67387
1.92715
2.19495
2.47661
2.77708
1.13472
0.389168
0.255803
0.209055
0.187757
0.177152
0.171981
0.169888
0.169644
0.170537
0.172116
0.174079
0.176218
0.178385
0.180479
0.18244
0.184245
0.185911
0.187493
0.189092
0.19086
0.193006
0.195798
0.199576
0.204753
0.211828
0.221392
0.234155
0.250966
0.272858
0.301097
0.337247
0.383225
0.441359
0.514391
0.605423
0.717731
0.854426
1.01794
1.2094
1.42806
1.67117
1.93464
2.21511
2.51362
2.84009
1.1017
0.376266
0.247424
0.202542
0.1822
0.172118
0.16722
0.16524
0.164999
0.165814
0.167259
0.169045
0.170977
0.172915
0.174767
0.176477
0.178026
0.17943
0.180744
0.182066
0.183539
0.185362
0.187791
0.19115
0.195836
0.202326
0.211191
0.22312
0.238939
0.259665
0.286553
0.321168
0.365459
0.42182
0.493125
0.58269
0.694103
0.830884
0.995939
1.19085
1.41521
1.66635
1.94011
2.23322
2.54812
2.89975
1.06635
0.362878
0.238818
0.195871
0.176511
0.166965
0.162352
0.160497
0.160275
0.161034
0.162368
0.164006
0.165762
0.167508
0.169157
0.170658
0.171995
0.173183
0.174277
0.175368
0.176593
0.17814
0.180252
0.183234
0.187465
0.193398
0.20159
0.212704
0.227538
0.247089
0.272599
0.305624
0.348128
0.402559
0.471908
0.559689
0.669798
0.806183
0.972261
1.17014
1.39981
1.65874
1.94259
2.24785
2.57764
2.95106
1.02927
0.34919
0.23009
0.189113
0.170741
0.161733
0.157407
0.155686
0.155493
0.15621
0.157453
0.158967
0.160577
0.162163
0.163645
0.164976
0.166141
0.167157
0.168074
0.168979
0.170002
0.171318
0.173157
0.175809
0.17963
0.185056
0.192611
0.202933
0.216801
0.235191
0.259321
0.290721
0.331359
0.383722
0.450894
0.536563
0.644916
0.780323
0.946744
1.14687
1.38118
1.64735
1.94075
2.25724
2.59954
2.9889
0.991072
0.335385
0.221341
0.182337
0.164944
0.156465
0.152423
0.150834
0.150676
0.151363
0.152531
0.153941
0.15543
0.156884
0.158231
0.159426
0.160457
0.16134
0.162121
0.162882
0.163744
0.164873
0.166483
0.168848
0.172304
0.177266
0.184234
0.193819
0.206771
0.224027
0.246773
0.276523
0.315227
0.365397
0.430187
0.513403
0.619494
0.753236
0.919141
1.12054
1.35849
1.63096
1.93304
2.25952
2.6115
3.00938
0.952316
0.321636
0.212668
0.175612
0.159175
0.151206
0.147435
0.145974
0.145852
0.146515
0.14762
0.148943
0.15033
0.151678
0.152917
0.154007
0.154937
0.155721
0.156403
0.157058
0.1578
0.158781
0.160204
0.162324
0.165459
0.17
0.176424
0.185315
0.197392