/*--------------------------------*- C++ -*----------------------------------*\
  =========                 |
  \\      /  F ield         | OpenFOAM: The Open Source CFD Toolbox
   \\    /   O peration     | Website:  https://openfoam.org
    \\  /    A nd           | Version:  7
     \\/     M anipulation  |
\*---------------------------------------------------------------------------*/
FoamFile
{
    version     2.0;
    format      ascii;
    class       volScalarField;
    location    "0.35";
    object      k;
}
// * * * * * * * * * * * * * * * * * * * * * * * * * * * * * * * * * * * * * //

dimensions      [0 2 -2 0 0 0 0];

internalField   nonuniform List<scalar> 
9072
(
0.00287788
0.00530604
0.00816363
0.0105151
0.0124794
0.0141787
0.0156714
0.0170423
0.0183464
0.0196232
0.0209
0.022194
0.0235143
0.0248633
0.0262386
0.0276341
0.0290405
0.0304467
0.0318401
0.0332068
0.034532
0.0358005
0.0369964
0.0381034
0.0391049
0.0399842
0.0407243
0.0413085
0.0417202
0.041942
0.0419546
0.0417216
0.0413443
0.0407622
0.0399413
0.0388625
0.0375157
0.0359063
0.0340766
0.0321347
0.0301941
0.0287456
0.0260961
0.022932
0.0205204
0.0174139
0.00460094
0.0110255
0.0168323
0.021761
0.0257353
0.02906
0.0319736
0.0346286
0.037138
0.0395824
0.0420152
0.0444689
0.0469594
0.0494899
0.0520544
0.0546403
0.0572296
0.0598012
0.0623315
0.0647952
0.0671662
0.0694177
0.0715229
0.0734553
0.0751892
0.0767004
0.077967
0.0789702
0.0796963
0.0801369
0.0802917
0.0801559
0.0796814
0.0789582
0.0780346
0.0769792
0.0758879
0.074897
0.0741903
0.0739479
0.0739674
0.0729909
0.0680691
0.0582051
0.044105
0.0307498
0.0054393
0.014056
0.0209966
0.0268551
0.0317393
0.0359203
0.0396135
0.0429889
0.0461774
0.0492738
0.0523415
0.0554188
0.0585242
0.0616619
0.064825
0.0679988
0.071163
0.0742933
0.0773627
0.0803425
0.0832027
0.0859132
0.0884438
0.090765
0.092849
0.0946704
0.0962077
0.0974448
0.0983733
0.0989947
0.0993225
0.0993795
0.0991775
0.0987942
0.0983052
0.0977955
0.0973534
0.0970772
0.0971012
0.0976003
0.0984501
0.098177
0.0945387
0.0842843
0.0645818
0.0397676
0.00599789
0.0163008
0.0238277
0.0302135
0.035683
0.0404441
0.044692
0.0485948
0.0522862
0.0558646
0.0593964
0.0629216
0.06646
0.0700158
0.0735821
0.0771434
0.0806788
0.0841629
0.0875677
0.0908632
0.0940183
0.0970018
0.0997825
0.102331
0.104618
0.106622
0.108321
0.109706
0.110774
0.111536
0.112021
0.112275
0.112351
0.112349
0.11237
0.112515
0.112864
0.113454
0.114291
0.115365
0.116468
0.116279
0.113052
0.104419
0.0860396
0.0490063
0.00673876
0.0180946
0.0260673
0.0328174
0.0386923
0.0438866
0.0485754
0.0529143
0.0570303
0.0610179
0.0649417
0.0688408
0.0727345
0.0766269
0.0805108
0.0843711
0.0881865
0.0919318
0.095579
0.099098
0.102458
0.105627
0.108576
0.111274
0.113696
0.11582
0.11763
0.11912
0.120295
0.121178
0.12181
0.122255
0.122598
0.12296
0.123467
0.124232
0.125327
0.126743
0.128374
0.130022
0.131331
0.13117
0.128007
0.120883
0.104975
0.0593979
0.00750468
0.0197026
0.0280087
0.0350043
0.0411665
0.0466963
0.0517503
0.0564667
0.0609589
0.0653129
0.0695877
0.0738193
0.0780252
0.0822087
0.0863626
0.0904719
0.0945159
0.0984699
0.102307
0.105997
0.10951
0.112816
0.115885
0.11869
0.121207
0.123417
0.125309
0.126882
0.128149
0.129141
0.129914
0.130548
0.131147
0.131855
0.132813
0.134147
0.13592
0.138089
0.140468
0.142721
0.14436
0.144418
0.141689
0.135929
0.122042
0.0691463
0.00820828
0.0211835
0.0297489
0.0369173
0.0432922
0.0490908
0.0544557
0.0595057
0.0643382
0.069027
0.0736234
0.0781583
0.0826467
0.0870905
0.0914824
0.0958075
0.100046
0.104174
0.108166
0.111992
0.115625
0.119035
0.122196
0.12508
0.127668
0.129943
0.1319
0.133543
0.134893
0.135991
0.136903
0.137722
0.138571
0.139607
0.140985
0.142838
0.145225
0.148081
0.151168
0.154065
0.156193
0.156717
0.154812
0.150445
0.137878
0.0781483
0.00882541
0.0225175
0.031308
0.0386172
0.045165
0.0511911
0.0568286
0.0621786
0.0673217
0.0723187
0.0772116
0.0820256
0.0867723
0.0914522
0.0960572
0.100573
0.104981
0.109258
0.113379
0.117317
0.121046
0.124538
0.127768
0.130714
0.133356
0.135683
0.137695
0.139401
0.14083
0.142031
0.143081
0.144085
0.145176
0.146524
0.148295
0.150623
0.153569
0.157056
0.160822
0.164401
0.167169
0.168389
0.167527
0.164497
0.152724
0.0868036
0.00935633
0.0236829
0.0326845
0.0401306
0.0468379
0.05307
0.0589548
0.0645788
0.0700072
0.0752882
0.0804545
0.0855254
0.0905086
0.0954031
0.1002
0.104886
0.109442
0.113847
0.118078
0.12211
0.125917
0.129474
0.132759
0.135751
0.138437
0.140808
0.142868
0.144633
0.146139
0.147444
0.148633
0.149819
0.151145
0.152791
0.154927
0.157694
0.161152
0.165224
0.169645
0.173939
0.177474
0.179588
0.179913
0.178136
0.16679
0.0961767
0.00981608
0.0246761
0.033881
0.0414747
0.0483448
0.0547751
0.0608915
0.0667692
0.0724607
0.0780029
0.0834203
0.0887263
0.0939253
0.0990142
0.103984
0.108821
0.113508
0.118024
0.122348
0.126457
0.130328
0.133937
0.137266
0.140296
0.143017
0.145426
0.14753
0.149353
0.150937
0.152346
0.153672
0.155039
0.156594
0.158522
0.161
0.164171
0.1681
0.172718
0.177773
0.182807
0.187211
0.190375
0.191998
0.191427
0.180264
0.104599
0.0102061
0.0255095
0.0349112
0.0426679
0.0497117
0.0563402
0.0626782
0.068793
0.0747273
0.080509
0.0861554
0.0916752
0.0970694
0.102333
0.107457
0.112428
0.117229
0.121842
0.126245
0.130419
0.134341
0.137992
0.141355
0.144416
0.147167
0.149609
0.151756
0.153637
0.155298
0.156812
0.158278
0.159822
0.1616
0.163797
0.166594
0.170139
0.174502
0.179629
0.185294
0.19108
0.196421
0.200759
0.203786
0.204449
0.193499
0.113169
0.0105333
0.0262065
0.0357992
0.0437332
0.0509627
0.0577915
0.0643434
0.0706802
0.0768379
0.0828377
0.0886916
0.0944039
0.0999732
0.105393
0.110654
0.115743
0.120643
0.125337
0.129808
0.134034
0.137999
0.141683
0.145074
0.148159
0.150936
0.15341
0.155599
0.157537
0.159278
0.160898
0.162503
0.164223
0.166217
0.16867
0.171767
0.175656
0.180418
0.186017
0.192264
0.198794
0.20511
0.210707
0.215246
0.217283
0.206948
0.12227
0.010818
0.0267966
0.036575
0.0446973
0.0521213
0.0591505
0.0659075
0.0724512
0.078813
0.0850099
0.0910496
0.0969335
0.102658
0.108216
0.113597
0.118788
0.123773
0.128537
0.133063
0.137333
0.141331
0.145042
0.148454
0.15156
0.154361
0.156866
0.159097
0.161093
0.162915
0.164643
0.166387
0.168282
0.170486
0.173184
0.176561
0.180769
0.185896
0.191929
0.19872
0.205968
0.213255
0.220152
0.226307
0.229985
0.221191
0.132314
0.0110764
0.0273104
0.0372709
0.0455875
0.053209
0.0604345
0.0673854
0.0741193
0.0806654
0.0870381
0.0932424
0.0992777
0.105139
0.110817
0.116301
0.12158
0.126637
0.13146
0.136031
0.140336
0.14436
0.148092
0.151521
0.154646
0.157468
0.160003
0.162277
0.164334
0.166238
0.168077
0.169961
0.172029
0.174439
0.17737
0.181012
0.185515
0.190976
0.197402
0.204689
0.212605
0.220821
0.229001
0.236834
0.242538
0.236882
0.143806
0.0113265
0.0277784
0.0379173
0.0464292
0.0542447
0.0616568
0.0687867
0.0756922
0.0824021
0.0889293
0.0952775
0.101444
0.107423
0.113205
0.118778
0.12413
0.129248
0.134118
0.138726
0.143058
0.147103
0.15085
0.154294
0.157435
0.160279
0.162844
0.165162
0.167282
0.169272
0.171223
0.173249
0.175489
0.1781
0.181258
0.185151
0.189929
0.195693
0.202472
0.210199
0.21871
0.227768
0.237139
0.246617
0.25476
0.254165
0.157301
0.0115882
0.0282283
0.0385401
0.0472433
0.0552428
0.0628266
0.0701169
0.0771735
0.084026
0.0906868
0.0971586
0.103438
0.109517
0.115386
0.121034
0.126448
0.131616
0.136524
0.14116
0.145513
0.149573
0.153332
0.156789
0.159944
0.16281
0.165407
0.167771
0.169956
0.172035
0.174101
0.176271
0.178683
0.181492
0.184873
0.189008
0.194044
0.200084
0.207174
0.215281
0.224298
0.234067
0.244452
0.255375
0.266118
0.27204
0.174687
0.00437721
0.0114659
0.0167977
0.0204594
0.0231285
0.0252018
0.0268852
0.0282962
0.0294029
0.0301696
0.0306146
0.030757
0.0306212
0.0302382
0.0296448
0.0288828
0.0279743
0.0269906
0.0260291
0.0250969
0.0242096
0.0233772
0.0226025
0.0218811
0.021203
0.0205657
0.0199589
0.0193366
0.0186634
0.0179043
0.0170198
0.0159645
0.0146848
0.0131153
0.0111727
0.00874924
0.00581014
0.00513499
0.00780183
0.0172213
0.0235457
0.0276762
0.0306522
0.0329965
0.03495
0.0366088
0.0379228
0.0388739
0.0394644
0.0397039
0.0396113
0.0392153
0.038554
0.0376718
0.0366011
0.0354209
0.0342341
0.0330678
0.0319479
0.0308931
0.0299115
0.0290014
0.0281526
0.0273502
0.0265817
0.0258047
0.0249794
0.0240637
0.0230104
0.0217651
0.0202628
0.0184223
0.0161344
0.0132392
0.00952864
0.00673738
0.00979075
0.0220396
0.0290463
0.0335805
0.0367878
0.039293
0.0413841
0.0431623
0.0445799
0.0456166
0.046265
0.0465289
0.0464239
0.045978
0.0452304
0.0442275
0.0430087
0.0416604
0.0402866
0.0389274
0.0376168
0.0363795
0.0352284
0.0341643
0.033177
0.0322481
0.0313588
0.030466
0.0295256
0.0284894
0.0273035
0.0259057
0.0242219
0.0221594
0.0195921
0.0163253
0.0120027
0.00753237
0.0123227
0.0263679
0.0339812
0.0388468
0.0422182
0.044809
0.0469568
0.04878
0.0502316
0.051289
0.0519394
0.0521831
0.0520336
0.0515181
0.0506763
0.0495558
0.0482007
0.0467036
0.0451672
0.0436398
0.0421621
0.0407638
0.039462
0.0382603
0.0371493
0.0361092
0.0351165
0.0341264
0.0330907
0.0319562
0.0306636
0.0291444
0.027318
0.0250839
0.0223061
0.0187707
0.0140148
0.00781178
0.0146611
0.030558
0.0387405
0.0438794
0.0473664
0.0499971
0.0521529
0.0539711
0.0554056
0.0564356
0.0570455
0.0572342
0.0570137
0.0564106
0.0554646
0.0542238
0.0527351
0.0510973
0.0494091
0.047725
0.0460903
0.0445395
0.0430936
0.041759
0.0405279
0.0393802
0.0382889
0.0372077
0.0360848
0.0348628
0.0334775
0.0318559
0.0299121
0.0275406
0.0245988
0.0208609
0.0158037
0.00782769
0.0169782
0.0348203
0.0435553
0.048914
0.0524678
0.0550978
0.057222
0.0589926
0.0603667
0.0613278
0.0618603
0.0619624
0.0616459
0.0609368
0.0598743
0.0585063
0.0568814
0.0551047
0.0532691
0.0514328
0.0496452
0.0479445
0.0463554
0.0448875
0.0435348
0.0422778
0.0410874
0.0399156
0.0387077
0.0374027
0.0359325
0.03422
0.0321754
0.0296892
0.0266139
0.0227117
0.0174071
0.00803699
0.0194014
0.039318
0.0485849
0.0541012
0.0576631
0.0602486
0.0623047
0.0639874
0.0652621
0.0661169
0.0665382
0.0665246
0.0660879
0.0652537
0.0640606
0.0625561
0.0607894
0.0588719
0.056889
0.0549016
0.0529618
0.0511108
0.0493767
0.0477723
0.0462941
0.0449234
0.0436302
0.0423651
0.0410712
0.0396843
0.0381328
0.0363364
0.0342019
0.0316163
0.0284271
0.0243818
0.018841
0.00870191
0.0220485
0.0442088
0.0539532
0.0595429
0.0630391
0.0655309
0.0674863
0.0690408
0.070181
0.0708962
0.0711752
0.0710182
0.0704378
0.0694593
0.0681207
0.0664683
0.0645525
0.06249
0.0603578
0.0582178
0.0561242
0.0541206
0.0522382
0.0504926
0.0488831
0.0473929
0.0459913
0.0446284
0.0432453
0.0417752
0.0401435
0.0382669
0.0360494
0.0333746
0.030084
0.0259079
0.0201402
0.00936227
0.0250483
0.0496675
0.0597666
0.0653096
0.0686494
0.0709927
0.0728111
0.0742069
0.0751821
0.0757277
0.075836
0.0755097
0.0747627
0.0736207
0.0721208
0.0703077
0.0682352
0.0660214
0.0637358
0.0614403
0.0591898
0.0570302
0.0549948
0.0531025
0.0513552
0.0497383
0.0482216
0.0467549
0.0452778
0.0437215
0.0420087
0.0400535
0.037757
0.0349993
0.031615
0.0273156
0.02133
0.00997453
0.0285544
0.0559087
0.0661287
0.0714545
0.0745292
0.0766659
0.0783134
0.0795254
0.0803091
0.080658
0.0805689
0.0800482
0.0791123
0.0777874
0.0761096
0.0741218
0.0718847
0.069512
0.0670675
0.0646119
0.0622006
0.0598803
0.0576868
0.0556413
0.053749
0.0519977
0.0503582
0.0487806
0.0472037
0.0455568
0.0437605
0.0417263
0.0393527
0.0365156
0.0330421
0.0286242
0.0224291
0.0105416
0.03276
0.0632197
0.0731615
0.0780322
0.0807151
0.082585
0.0840311
0.0850359
0.0856029
0.0857282
0.0854149
0.0846744
0.0835265
0.0819985
0.0801256
0.0779483
0.0755375
0.0729974
0.0703871
0.0677659
0.0651885
0.0627023
0.0603446
0.0581392
0.0560941
0.0542002
0.0524296
0.0507334
0.0490498
0.0473069
0.0454234
0.0433085
0.0408576
0.0379426
0.0343823
0.0298487
0.0234519
0.0110704
0.0379182
0.0720048
0.0810463
0.0851339
0.0872764
0.0888128
0.0900243
0.090794
0.0911145
0.0909848
0.090416
0.0894268
0.0880411
0.0862878
0.0842009
0.0818184
0.0792236
0.0765063
0.0737224
0.0709286
0.0681789
0.0655208
0.0629925
0.0606198
0.0584139
0.0563688
0.0544586
0.0526354
0.0508376
0.0489925
0.0470171
0.0448185
0.042289
0.0392959
0.0356492
0.0310017
0.0244101
0.0115673
0.0443615
0.0828129
0.0900964
0.0929536
0.0943672
0.0954801
0.0964041
0.0968926
0.0969205
0.0964902
0.0956235
0.094348
0.0926926
0.0906874
0.0883645
0.0857597
0.0829685
0.0800632
0.077096
0.0741215
0.0711922
0.0683551
0.0656491
0.0631018
0.0607269
0.058522
0.0564635
0.0545048
0.0525848
0.0506305
0.0485578
0.0462714
0.0436607
0.040588
0.0368545
0.0320939
0.0253135
0.0120377
0.0525145
0.0962918
0.100884
0.101908
0.10231
0.102844
0.103372
0.10349
0.103143
0.102338
0.101108
0.0994921
0.0975229
0.0952307
0.092644
0.0897979
0.0867953
0.0836887
0.0805271
0.0773621
0.0742445
0.0712206
0.0683292
0.0655993
0.063047
0.0606739
0.0584587
0.056356
0.0543057
0.052235
0.0500588
0.04768
0.0449848
0.0418303
0.0380085
0.0331349
0.0261708
0.0124864
0.0629648
0.112877
0.11447
0.112842
0.111719
0.111367
0.111267
0.110843
0.109977
0.108672
0.106975
0.104934
0.102586
0.0999571
0.0970682
0.0939597
0.0907251
0.087401
0.0840312
0.080664
0.0773479
0.0741279
0.0710427
0.0681219
0.0653839
0.0628343
0.0604548
0.0582001
0.0560117
0.0538172
0.0515312
0.0490549
0.0462712
0.043032
0.0391203
0.0341338
0.0269906
0.0129178
0.0787429
0.134678
0.132816
0.127332
0.123637
0.121758
0.120615
0.119344
0.117712
0.115704
0.113374
0.110778
0.107952
0.104915
0.101672
0.098271
0.0947778
0.0912155
0.0876206
0.084037
0.0805103
0.0770838
0.0737953
0.0706748
0.0677427
0.0650088
0.0624585
0.0600449
0.0577109
0.0553856
0.0529836
0.0504045
0.0475283
0.0442015
0.0401981
0.0350991
0.027782
0.0133371
0.0119185
0.028789
0.0393481
0.0483273
0.0565881
0.0644115
0.0719231
0.0791864
0.0862327
0.0930746
0.0997138
0.106145
0.11236
0.118347
0.124095
0.129591
0.134824
0.139783
0.144457
0.148838
0.15292
0.156698
0.160175
0.163358
0.166263
0.168918
0.171363
0.17366
0.175888
0.178147
0.180558
0.183256
0.186392
0.190123
0.194629
0.200045
0.206479
0.213993
0.222596
0.232249
0.242885
0.254463
0.267016
0.280544
0.291119
0.226317
0.0125141
0.029683
0.0405966
0.0498981
0.05842
0.0664602
0.074162
0.0816001
0.088811
0.0958081
0.102592
0.109155
0.115487
0.121574
0.127405
0.132967
0.138249
0.143243
0.147941
0.152339
0.156433
0.160226
0.163725
0.166942
0.169901
0.172635
0.175192
0.17764
0.180067
0.182582
0.185306
0.188373
0.19192
0.196078
0.200995
0.206792
0.213562
0.221365
0.230225
0.240121
0.250983
0.262691
0.275008
0.287227
0.295114
0.270488
0.0132533
0.0307076
0.041968
0.0515036
0.0601702
0.0683101
0.0760951
0.0836137
0.0909064
0.0979858
0.104849
0.111487
0.117884
0.124027
0.129901
0.135495
0.140798
0.145804
0.150508
0.154908
0.159006
0.162807
0.166324
0.169575
0.172587
0.175399
0.178063
0.180651
0.183261
0.186006
0.189012
0.192405
0.19631
0.200839
0.206087
0.21216
0.219125
0.227025
0.235875
0.245642
0.256214
0.267353
0.278574
0.288829
0.29542
0.288728
0.0141248
0.0318463
0.0433931
0.0530396
0.0617244
0.0698551
0.0776351
0.0851626
0.0924774
0.0995879
0.106486
0.113158
0.119585
0.125752
0.131642
0.137245
0.142551
0.147554
0.152252
0.156647
0.160743
0.16455
0.168084
0.171368
0.174434
0.177321
0.180083
0.182797
0.185564
0.188507
0.191751
0.195417
0.199614
0.204429
0.209923
0.216163
0.223188
0.231023
0.23967
0.249086
0.259132
0.269521
0.279719
0.28876
0.294945
0.294557
0.0150533
0.0330161
0.0447333
0.0543538
0.0629477
0.0709933
0.0787164
0.086215
0.0935211
0.100635
0.107542
0.114222
0.120656
0.126826
0.132716
0.138312
0.143608
0.1486
0.153287
0.157674
0.161766
0.165578
0.169128
0.172445
0.175563
0.178522
0.181374
0.184197
0.187099
0.190209
0.193652
0.19754
0.201963
0.206983
0.212636
0.218944
0.225924
0.233586
0.241927
0.250902
0.260368
0.270048
0.27946
0.287819
0.293974
0.296239
0.0158881
0.034043
0.0457787
0.0552648
0.0637156
0.07166
0.079325
0.0867949
0.0940884
0.101196
0.108099
0.114775
0.121201
0.12736
0.133236
0.138817
0.144096
0.14907
0.153744
0.158121
0.162211
0.166027
0.169593
0.172941
0.176108
0.179133
0.182066
0.184985
0.188008
0.191268
0.194887
0.198958
0.203551
0.208705
0.214435
0.220738
0.227614
0.235064
0.243083
0.251626
0.260553
0.269617
0.278421
0.286348
0.292564
0.2961
0.0164265
0.0345748
0.0462282
0.0555887
0.0639526
0.0718585
0.0795126
0.08698
0.0942699
0.10137
0.108261
0.11492
0.121327
0.127464
0.133316
0.138872
0.144128
0.149083
0.153741
0.158109
0.162197
0.16602
0.169603
0.172982
0.176195
0.179276
0.182273
0.185274
0.188415
0.191837
0.195636
0.199877
0.204597
0.209818
0.215558
0.221817
0.228588
0.235865
0.243631
0.251822
0.26029
0.268828
0.277133
0.28471
0.290918
0.295085
0.0164935
0.0340091
0.0457609
0.055238
0.063702
0.0716896
0.0793947
0.0868831
0.0941728
0.10126
0.10813
0.114763
0.121142
0.12725
0.133073
0.138601
0.143833
0.148772
0.153423
0.157791
0.161885
0.16572
0.169326
0.172744
0.176006
0.179128
0.182153
0.185196
0.188455
0.192085
0.196112
0.200548
0.205354
0.210557
0.216221
0.222404
0.229119
0.236339
0.244002
0.251972
0.260069
0.268152
0.276002
0.283208
0.289263
0.293684
0.0161144
0.0320221
0.044531
0.0544832
0.0632121
0.0713572
0.0791388
0.0866502
0.0939364
0.10101
0.107861
0.114472
0.120828
0.126912
0.132708
0.138212
0.143428
0.148361
0.153019
0.157405
0.161516
0.165369
0.169004
0.172479
0.175818
0.178976
0.181969
0.184958
0.188305
0.19225
0.196659
0.201472
0.206376
0.211419
0.216829
0.222845
0.229528
0.236802
0.244489
0.252294
0.260067
0.267781
0.275212
0.281973
0.287708
0.292104
0.0157198
0.0291503
0.0434829
0.0539399
0.0628703
0.0711516
0.0790081
0.0865521
0.0938566
0.100947
0.107812
0.114431
0.120788
0.126896
0.132711
0.13822
0.143467
0.148413
0.153082
0.157477
0.1616
0.165466
0.169119
0.172614
0.175969
0.179132
0.182133
0.185155
0.188589
0.192556
0.196923
0.201638
0.206864
0.212498
0.217846
0.223684
0.230409
0.238001
0.245863
0.253265
0.26054
0.267891
0.274797
0.280923
0.286203
0.29042
0.0198433
0.0312178
0.0444457
0.0547959
0.0637692
0.0721566
0.0801181
0.0877885
0.0952678
0.102602
0.109809
0.116955
0.124204
0.131696
0.13835
0.145052
0.151362
0.15748
0.163228
0.168691
0.173901
0.178874
0.183648
0.188275
0.192794
0.197216
0.201561
0.205935
0.210459
0.215058
0.219356
0.222571
0.223014
0.215211
0.218483
0.224038
0.23067
0.238454
0.24709
0.254849
0.262481
0.269662
0.275531
0.280542
0.285146
0.288956
0.0319194
0.0483665
0.062848
0.0725657
0.0809902
0.0892475
0.0969014
0.104087
0.110981
0.117688
0.124255
0.130701
0.137038
0.143264
0.149316
0.15525
0.161031
0.166685
0.172181
0.17753
0.182749
0.187852
0.192861
0.197814
0.202754
0.207715
0.212737
0.217905
0.223328
0.229005
0.234666
0.239697
0.243336
0.246033
0.250907
0.257252
0.262736
0.264181
0.255791
0.256426
0.263041
0.270663
0.276737
0.281369
0.285481
0.288614
0.0369094
0.061197
0.0745401
0.0828281
0.0913871
0.0998297
0.107655
0.114865
0.121614
0.128052
0.134273
0.140332
0.146257
0.152061
0.157735
0.163281
0.168705
0.174013
0.179212
0.184306
0.189313
0.194256
0.199167
0.20408
0.209036
0.214083
0.219298
0.22479
0.23068
0.236991
0.243545
0.249928
0.255747
0.26136
0.267998
0.275934
0.28348
0.288358
0.289976
0.292213
0.295708
0.294733
0.279841
0.28196
0.285915
0.289212
0.0351619
0.0614581
0.0782765
0.0890485
0.0986389
0.107533
0.115643
0.123016
0.129799
0.136148
0.142186
0.147991
0.153614
0.159083
0.164409
0.169598
0.174657
0.1796
0.184439
0.189185
0.193861
0.198495
0.203126
0.207791
0.212535
0.217417
0.222532
0.228006
0.233952
0.2404
0.24722
0.254135
0.260914
0.26775
0.275334
0.284014
0.293018
0.301016
0.307182
0.312365
0.317493
0.320057
0.318423
0.317942
0.316672
0.296713
0.0321621
0.0600522
0.0785237
0.0915722
0.102434
0.112014
0.120582
0.128298
0.135324
0.141812
0.147891
0.153653
0.159165
0.164467
0.169584
0.174531
0.179323
0.183973
0.188499
0.192919
0.197258
0.201549
0.205835
0.210161
0.214579
0.219158
0.224
0.229227
0.234945
0.241188
0.247879
0.254847
0.26196
0.269336
0.277364
0.286298
0.295802
0.3051
0.313515
0.321165
0.32865
0.335007
0.338851
0.341786
0.343912
0.340659
0.0305499
0.0595043
0.0782209
0.0924707
0.104277
0.114509
0.123571
0.131695
0.139057
0.145804
0.152061
0.157924
0.163464
0.168732
0.173761
0.178577
0.183197
0.187643
0.191933
0.19609
0.200144
0.204131
0.208096
0.212091
0.216175
0.220426
0.224943
0.229841
0.235221
0.241133
0.247547
0.254378
0.261557
0.269145
0.27735
0.286318
0.295894
0.305633
0.315074
0.324156
0.333111
0.341505
0.348443
0.354347
0.359726
0.362702
0.0304398
0.0594542
0.0781833
0.0929795
0.105338
0.116035
0.125499
0.133985
0.141673
0.148703
0.155189
0.161222
0.166873
0.172194
0.177224
0.181994
0.186528
0.190849
0.194982
0.198954
0.202798
0.206554
0.210269
0.214001
0.217816
0.221795
0.226036
0.230648
0.235729
0.241346
0.247511
0.254194
0.261368
0.269061
0.277371
0.286369
0.295971
0.305914
0.31589
0.325757
0.335525
0.344935
0.353497
0.361216
0.368281
0.373682
0.0312082
0.0599125
0.0786424
0.0936631
0.106269
0.117209
0.126914
0.135646
0.143579
0.150844
0.157543
0.163755
0.169545
0.174963
0.180048
0.184833
0.189345
0.193611
0.197658
0.201519
0.205231
0.208836
0.212389
0.215951
0.219593
0.223401
0.227472
0.231911
0.23682
0.242275
0.248318
0.254958
0.262191
0.270032
0.278522
0.287682
0.297449
0.307655
0.318078
0.328546
0.33895
0.349076
0.358583
0.367344
0.375323
0.38193
0.0325686
0.0608812
0.0796392
0.0946941
0.107324
0.118307
0.128087
0.136926
0.144993
0.152409
0.159261
0.165618
0.171535
0.177056
0.182216
0.187047
0.191577
0.195835
0.199851
0.203662
0.207308
0.210838
0.214311
0.217793
0.221362
0.225109
0.229132
0.233538
0.238429
0.243892
0.249987
0.256746
0.264184
0.272311
0.281138
0.290659
0.300815
0.311476
0.322465
0.333599
0.34471
0.355573
0.365901
0.375448
0.384048
0.391295
0.0342889
0.0622772
0.0810798
0.0960287
0.108518
0.119389
0.129101
0.137921
0.146013
0.153485
0.160416
0.166862
0.172867
0.178467
0.183694
0.188575
0.193137
0.19741
0.201428
0.205228
0.208857
0.212369
0.215827
0.219305
0.222889
0.226673
0.230762
0.235265
0.240287
0.245922
0.252242
0.259296
0.26711
0.275694
0.285048
0.295147
0.30593
0.317281
0.329037
0.34101
0.352993
0.364737
0.37595
0.386335
0.3956
0.403316
0.0361552
0.0639524
0.0827921
0.097529
0.109766
0.120414
0.129954
0.138656
0.146678
0.154123
0.161057
0.167527
0.173569
0.179209
0.184473
0.189386
0.193973
0.198263
0.202292
0.206101
0.20974
0.213269
0.216758
0.220288
0.223952
0.227851
0.232097
0.236802
0.242077
0.248021
0.254717
0.262221
0.270568
0.279773
0.289828
0.300701
0.312322
0.324578
0.337307
0.350309
0.363346
0.37614
0.38837
0.399693
0.409755
0.418101
0.0380033
0.0657546
0.0845962
0.0990468
0.110961
0.121319
0.130619
0.139132
0.147015
0.154363
0.161234
0.167667
0.173688
0.179321
0.184583
0.189497
0.194085
0.198377
0.20241
0.206228
0.209885
0.213448
0.216993
0.220609
0.224396
0.228466
0.232933
0.237919
0.243537
0.249894
0.257077
0.26515
0.274155
0.284108
0.295002
0.306797
0.319419
0.332747
0.346613
0.360799
0.375042
0.389027
0.402399
0.41477
0.425736
0.434811
0.0397264
0.067558
0.0863472
0.100466
0.112023
0.122056
0.131077
0.139358
0.147053
0.15425
0.161003
0.167344
0.173295
0.178871
0.184088
0.188964
0.193522
0.197791
0.201808
0.205622
0.209292
0.21289
0.216499
0.220218
0.224154
0.228425
0.233156
0.238472
0.244494
0.25133
0.259074
0.267794
0.277538
0.288325
0.300146
0.31296
0.326685
0.341192
0.356299
0.371771
0.387314
0.40258
0.417174
0.430669
0.442616
0.452497
0.0412641
0.0692692
0.0879467
0.101713
0.112905
0.122604
0.131329
0.139354
0.146828
0.153838
0.160431
0.166636
0.17247
0.177945
0.183075
0.187875
0.192367
0.196581
0.200557
0.204346
0.208014
0.211637
0.215308
0.219131
0.223224
0.227713
0.232728
0.2384
0.244855
0.252206
0.260547
0.269955
0.280477
0.292138
0.304928
0.318803
0.333675
0.349407
0.3658
0.382596
0.399473
0.416048
0.431889
0.446529
0.459484
0.470199
0.042587
0.0708234
0.0893375
0.102751
0.113588
0.12296
0.131389
0.139147
0.146384
0.15318
0.159583
0.165618
0.171299
0.176636
0.18164
0.186327
0.190719
0.194847
0.198753
0.202494
0.206138
0.209771
0.213491
0.217411
0.221657
0.226362
0.231663
0.237696
0.24459
0.25246
0.261405
0.271502
0.282805
0.295337
0.309092
0.324023
0.340037
0.356983
0.374648
0.39275
0.410936
0.42879
0.445845
0.461597
0.47553
0.487059
0.0436854
0.0721774
0.090492
0.103567
0.114072
0.123133
0.131276
0.138769
0.145761
0.152331
0.158523
0.164363
0.169862
0.17503
0.179878
0.184421
0.188681
0.192694
0.196503
0.20017
0.203768
0.20739
0.211141
0.215143
0.219528
0.224435
0.230008
0.236387
0.243702
0.252071
0.261596
0.272355
0.284404
0.29777
0.312447
0.328386
0.345488
0.363591
0.382466
0.401804
0.421226
0.44028
0.458465
0.475245
0.490079
0.502353
0.0445609
0.0733051
0.0914003
0.104161
0.114362
0.123138
0.13101
0.138247
0.144995
0.151332
0.157303
0.162931
0.168229
0.173205
0.177872
0.182244
0.186349
0.19022
0.193908
0.197476
0.201006
0.204595
0.208356
0.212417
0.216918
0.222003
0.227821
0.234513
0.242213
0.251039
0.261094
0.272459
0.285192
0.299323
0.314845
0.331709
0.34981
0.368975
0.388957
0.409425
0.429968
0.450104
0.469296
0.486983
0.502598
0.515511
0.0452226
0.0741923
0.0920626
0.104539
0.114469
0.122985
0.130607
0.137601
0.144112
0.150218
0.155963
0.161371
0.166454
0.171223
0.175691
0.179875
0.183802
0.187512
0.191056
0.194505
0.197944
0.201477
0.205224
0.209318
0.213905
0.219135
0.225158
0.232119
0.24015
0.249373
0.259889
0.271783
0.285114
0.299914
0.316179
0.333859
0.352842
0.372948
0.39391
0.415374
0.436899
0.457972
0.478025
0.496469
0.512722
0.526144
0.045683
0.0748339
0.0924829
0.104707
0.114398
0.122682
0.130077
0.136845
0.143129
0.14901
0.154531
0.159715
0.164578
0.169132
0.173389
0.177371
0.181107
0.184639
0.188023
0.191334
0.194662
0.198116
0.201822
0.205921
0.21056
0.215893
0.222074
0.229246
0.237545
0.24709
0.257984
0.270312
0.284138
0.299497
0.316385
0.334754
0.354489
0.375397
0.397199
0.419515
0.441876
0.463733
0.484491
0.503534
0.52027
0.534063
0.0459568
0.0752299
0.0926667
0.10467
0.114152
0.122232
0.129421
0.135981
0.142054
0.14772
0.153022
0.157986
0.162629
0.166963
0.171006
0.174778
0.178313
0.181656
0.184867
0.188024
0.191223
0.194577
0.198217
0.202287
0.20694
0.212332
0.218616
0.225937
0.23443
0.244214
0.255392
0.268053
0.282263
0.298059
0.315445
0.33437
0.35472
0.376294
0.398796
0.421825
0.44488
0.467381
0.488697
0.508192
0.525267
0.539303
0.0460599
0.0753847
0.09262
0.10443
0.113731
0.121632
0.128639
0.13501
0.140887
0.14635
0.151443
0.156194
0.160621
0.164738
0.168565
0.172126
0.175457
0.178605
0.181633
0.184625
0.187678
0.190912
0.19446
0.19847
0.203098
0.2085
0.21483
0.222234
0.230844
0.24078
0.252148
0.265036
0.279514
0.295628
0.313385
0.332738
0.353573
0.375685
0.398764
0.422387
0.446021
0.469049
0.490808
0.510638
0.527941
0.542123
0.046009
0.0753066
0.0923495
0.10399
0.113134
0.120879
0.127725
0.133926
0.139624
0.144898
0.149795
0.154343
0.158561
0.162468
0.166084
0.169436
0.172562
0.175512
0.178354
0.181171
0.184067
0.187163
0.190595
0.194515
0.199078
0.204442
0.210763
0.218182
0.226834
0.236837
0.248299
0.261312
0.275951
0.292268
0.310278
0.329943
0.35115
0.373693
0.397252
0.42138
0.445514
0.468999
0.491133
0.511233
0.528704
0.542997
0.0458212
0.0750062
0.0918628
0.103352
0.112359
0.119968
0.126672
0.132722
0.138257
0.143358
0.148073
0.15243
0.156452
0.160158
0.163571
0.16672
0.169645
0.1724
0.175053
0.177691
0.18042
0.183363
0.186659
0.190459
0.194921
0.200204
0.20646
0.213833
0.222455
0.232446
0.243914
0.256958
0.271658
0.288076
0.306236
0.326113
0.347601
0.370495
0.394468
0.419054
0.443657
0.467581
0.490084
0.510457
0.528112
0.542563
0.0455146
0.0744951
0.0911679
0.102518
0.111404
0.118896
0.125475
0.13139
0.136779
0.141723
0.14627
0.150451
0.15429
0.157807
0.161027
0.163983
0.166716
0.16928
0.171747
0.174206
0.176762
0.17954
0.182682
0.186339
0.190668
0.195829
0.201972
0.209242
0.21777
0.227677
0.239075
0.252066
0.266742
0.283173
0.3014
0.321409
0.34311
0.366305
0.390663
0.415702
0.440794
0.465199
0.488132
0.508856
0.526796
0.541549
0.0450773
0.0737922
0.0902794
0.101499
0.110276
0.11766
0.124128
0.129924
0.135183
0.139986
0.144382
0.148401
0.152071
0.155413
0.158455
0.161229
0.16378
0.166163
0.16845
0.17073
0.173112
0.17572
0.178694
0.182188
0.186358
0.191362
0.197352
0.20447
0.21285
0.222612
0.233874
0.246744
0.261323
0.277698
0.295924
0.316009
0.33788
0.361352
0.386099
0.411625
0.437272
0.462257
0.485743
0.506967
0.525375
0.540677
0.0445184
0.0729118
0.0892038
0.100297
0.108973
0.116264
0.122634
0.128324
0.133468
0.138143
0.142401
0.146275
0.14979
0.152973
0.155852
0.158459
0.160841
0.163053
0.165169
0.167278
0.169487
0.171921
0.174721
0.178037
0.182027
0.186848
0.192652
0.19958
0.207766
0.217336
0.228409
0.241103
0.25553
0.271793
0.289969
0.31009
0.332107
0.355857
0.381021
0.407099
0.433406
0.459112
0.483327
0.505255
0.524374
0.540546
0.0438521
0.0718674
0.0879521
0.098919
0.107501
0.114707
0.120991
0.126588
0.131629
0.136192
0.140328
0.144071
0.147449
0.150488
0.153218
0.155673
0.1579
0.159956
0.161913
0.163859
0.165901
0.168164
0.170786
0.173917
0.177713
0.182332
0.187924
0.194633
0.202592
0.211932
0.222777
0.235253
0.249486
0.265597
0.283688
0.303818
0.325971
0.35001
0.375637
0.402351
0.429444
0.456038
0.481186
0.504055
0.524157
0.541555
0.0430919
0.070674
0.0865379
0.0973768
0.105868
0.112995
0.119201
0.124716
0.129667
0.134131
0.138159
0.141787
0.145043
0.147955
0.150553
0.152873
0.154962
0.156876
0.158687
0.160482
0.162367
0.164464
0.16691
0.169853
0.173449
0.177853
0.183218
0.189687
0.197397
0.20648
0.217068
0.229297
0.243305
0.259235
0.277215
0.297336
0.31962
0.343967
0.370103
0.397538
0.425547
0.453204
0.479498
0.503545
0.524895
0.543841
0.0422508
0.0693482
0.0849775
0.0956848
0.104085
0.111138
0.117273
0.122714
0.127584
0.131961
0.135895
0.139422
0.142572
0.145373
0.147857
0.15006
0.152027
0.153816
0.155497
0.157156
0.158896
0.160836
0.163111
0.165869
0.169264
0.17345
0.178578
0.184797
0.192242
0.201053
0.211365
0.223325
0.237088
0.252814
0.270661
0.290758
0.313166
0.337829
0.364512
0.392742
0.421784
0.450667
0.478306
0.503751
0.526566
0.547286
0.0413422
0.0679079
0.083289
0.0938596
0.102169
0.109149
0.115217
0.12059
0.125388
0.129688
0.13354
0.136979
0.140038
0.142744
0.14513
0.147232
0.149096
0.150777
0.152345
0.153884
0.155494
0.157291
0.159408
0.161988
0.165184
0.169151
0.174043
0.180006
0.187181
0.195709