/*--------------------------------*- C++ -*----------------------------------*\
  =========                 |
  \\      /  F ield         | OpenFOAM: The Open Source CFD Toolbox
   \\    /   O peration     | Website:  https://openfoam.org
    \\  /    A nd           | Version:  7
     \\/     M anipulation  |
\*---------------------------------------------------------------------------*/
FoamFile
{
    version     2.0;
    format      ascii;
    class       volScalarField;
    location    "0.35";
    object      nut;
}
// * * * * * * * * * * * * * * * * * * * * * * * * * * * * * * * * * * * * * //

dimensions      [0 2 -1 0 0 0 0];

internalField   nonuniform List<scalar> 
9072
(
2.45073e-05
2.44728e-05
3.03381e-05
3.44374e-05
3.75094e-05
3.99934e-05
4.2053e-05
4.38602e-05
4.55128e-05
4.70742e-05
4.85849e-05
5.00685e-05
5.1537e-05
5.29941e-05
5.4438e-05
5.58633e-05
5.72622e-05
5.8626e-05
5.99452e-05
6.12099e-05
6.24106e-05
6.35374e-05
6.45808e-05
6.55311e-05
6.63787e-05
6.71137e-05
6.77263e-05
6.82063e-05
6.8543e-05
6.87247e-05
6.87366e-05
6.8549e-05
6.82461e-05
6.77709e-05
6.70921e-05
6.6187e-05
6.5037e-05
6.36337e-05
6.19987e-05
6.0215e-05
5.8376e-05
5.69651e-05
5.42461e-05
5.08441e-05
4.80893e-05
4.42308e-05
4.82971e-05
0.000165153
0.000243314
0.000297373
0.000337206
0.000368627
0.000394782
0.000417508
0.000438066
0.000457267
0.000475593
0.000493286
0.000510429
0.000527007
0.000542945
0.000558143
0.000572492
0.000585886
0.000598231
0.000609442
0.000619445
0.000628177
0.000635582
0.000641613
0.000646228
0.000649395
0.000651094
0.000651317
0.000650078
0.000647411
0.000643363
0.000637747
0.000625941
0.000610323
0.000591399
0.000569436
0.000544764
0.00051816
0.000491256
0.000466461
0.000445396
0.000423285
0.000399386
0.000383975
0.000292174
0.000124428
5.25224e-05
0.000276229
0.000423997
0.000535787
0.000626379
0.000703114
0.000770174
0.000830581
0.000886495
0.000939352
0.00099
0.00103885
0.00108599
0.00113131
0.0011746
0.00121558
0.00125397
0.00128952
0.00132202
0.00135127
0.00137713
0.00139948
0.00141823
0.00143329
0.00144463
0.00145221
0.00145602
0.00145607
0.00145243
0.00144518
0.00143434
0.00141941
0.0013957
0.00136371
0.00132326
0.00127349
0.00121297
0.00114061
0.00105734
0.000968044
0.000881218
0.000802317
0.000746797
0.000704014
0.000511806
0.000141479
5.50976e-05
0.000344663
0.000546125
0.000707983
0.000846119
0.000967778
0.00107759
0.00117901
0.0012745
0.00136574
0.00145367
0.00153871
0.00162083
0.0016998
0.0017752
0.00184656
0.00191343
0.00197538
0.00203206
0.00208317
0.00212848
0.0021678
0.00220102
0.00222803
0.0022488
0.0022633
0.00227156
0.00227364
0.00226965
0.00225972
0.00224384
0.00222131
0.00218825
0.00214381
0.00208656
0.00201394
0.00192226
0.00180764
0.00166868
0.00151032
0.00134677
0.00119641
0.00108987
0.000999759
0.000745988
0.000157005
5.8319e-05
0.000382746
0.00062796
0.000832183
0.00101238
0.00117567
0.00132655
0.00146836
0.00160354
0.00173368
0.00185963
0.00198168
0.00209969
0.00221321
0.00232167
0.00242442
0.00252083
0.00261035
0.00269247
0.0027668
0.00283303
0.00289092
0.00294031
0.00298111
0.00301326
0.00303677
0.00305171
0.0030582
0.00305641
0.00304648
0.00302838
0.00300126
0.00296178
0.00290829
0.00283809
0.002747
0.00262925
0.00247869
0.00229187
0.00207293
0.00183871
0.0016163
0.00143944
0.00127966
0.000933739
0.000172856
6.1518e-05
0.00040714
0.000685273
0.000924375
0.00114128
0.00134246
0.00153179
0.00171214
0.00188558
0.00205344
0.00221634
0.0023744
0.00252728
0.0026744
0.00281502
0.00294837
0.00307367
0.00319026
0.00329754
0.00339503
0.00348236
0.00355923
0.00362546
0.00368095
0.00372566
0.00375962
0.00378296
0.00379585
0.0037985
0.00379108
0.0037735
0.00374478
0.00370179
0.00364229
0.00356249
0.00345671
0.00331757
0.00313731
0.00291116
0.00264243
0.00234826
0.00205908
0.00180614
0.00155666
0.00109668
0.000186483
6.43309e-05
0.000425927
0.000728512
0.000996307
0.00124526
0.0014808
0.00170581
0.00192238
0.00213202
0.00233562
0.00253355
0.00272567
0.0029115
0.0030903
0.00326124
0.00342344
0.00357605
0.00371832
0.00384958
0.00396931
0.00407706
0.00417254
0.00425553
0.00432593
0.00438372
0.00442898
0.00446186
0.00448261
0.00449147
0.00448862
0.00447389
0.00444616
0.00440227
0.00433948
0.00425299
0.00413592
0.00397962
0.00377535
0.00351755
0.00320883
0.00286514
0.00251571
0.00218635
0.001835
0.00124559
0.00019821
6.67056e-05
0.000441974
0.000763951
0.0010561
0.00133349
0.00160034
0.00185837
0.00210873
0.00235221
0.00258924
0.00281982
0.0030436
0.00325995
0.00346805
0.00366698
0.00385581
0.00403365
0.00419971
0.00435329
0.00449382
0.00462085
0.00473405
0.00483322
0.00491824
0.00498915
0.00504604
0.00508913
0.00511871
0.00513507
0.00513836
0.00512833
0.00510368
0.00506111
0.00499735
0.00490673
0.00478136
0.00461169
0.00438833
0.00410533
0.00376453
0.00337969
0.00297561
0.00256939
0.00210888
0.00138267
0.000208817
6.86837e-05
0.000456155
0.000795107
0.00110913
0.00141251
0.00170826
0.00199693
0.00227867
0.00255354
0.00282146
0.00308211
0.00333493
0.00357918
0.00381397
0.00403835
0.00425138
0.00445217
0.0046399
0.00481388
0.00497353
0.00511839
0.00524814
0.00536257
0.00546161
0.00554529
0.00561379
0.00566736
0.00570634
0.00573104
0.00574162
0.00573768
0.00571776
0.00567829
0.00561549
0.00552293
0.0053919
0.00521213
0.00497383
0.00467076
0.00430383
0.00388392
0.00342935
0.00294649
0.00237393
0.00150867
0.000219816
7.03511e-05
0.000468789
0.000823954
0.00115888
0.00148686
0.00180976
0.002127
0.00243783
0.00274163
0.00303785
0.0033259
0.00360507
0.00387451
0.00413333
0.00438059
0.00461535
0.00483674
0.00504398
0.00523637
0.00541334
0.00557446
0.00571942
0.00584803
0.00596025
0.00605615
0.00613595
0.00619998
0.0062486
0.00628216
0.00630077
0.00630393
0.00628994
0.00625497
0.0061947
0.00610205
0.00596758
0.00578049
0.00553065
0.00521147
0.00482272
0.00437184
0.00386974
0.00331151
0.00262796
0.00162699
0.000229214
7.17504e-05
0.000480151
0.000851704
0.0012076
0.00155963
0.00190846
0.00225253
0.00259029
0.0029206
0.00324255
0.00355535
0.00385818
0.00415017
0.00443042
0.00469803
0.00495211
0.00519183
0.00541642
0.00562525
0.00581776
0.00599355
0.00615233
0.00629395
0.00641839
0.0065258
0.00661644
0.00669067
0.00674894
0.00679158
0.00681868
0.00682959
0.00682241
0.00679301
0.00673651
0.00664526
0.00650925
0.00631716
0.00605851
0.00572621
0.00531863
0.00483947
0.00429205
0.00366074
0.00287003
0.00173911
0.000238395
7.29045e-05
0.000490529
0.000879213
0.00125679
0.00163287
0.00200679
0.00237615
0.00273883
0.00309333
0.00343852
0.00377349
0.00409739
0.00440937
0.00470858
0.00499416
0.00526527
0.00552115
0.00576108
0.00598446
0.00619078
0.00637968
0.0065509
0.00670434
0.00684003
0.00695816
0.00705904
0.00714311
0.00721083
0.00726258
0.00729837
0.00731743
0.00731763
0.00729459
0.00724278
0.00715417
0.0070182
0.00682304
0.00655777
0.00621463
0.00579031
0.00528467
0.00469379
0.0039925
0.00310008
0.00184689
0.000247773
7.38996e-05
0.000500253
0.000907156
0.00130746
0.00170783
0.00210622
0.00249948
0.00288519
0.00326166
0.0036277
0.00398241
0.00432495
0.00465454
0.00497039
0.00527171
0.00555775
0.00582778
0.00608116
0.00631734
0.00653586
0.0067364
0.00691875
0.00708286
0.0072288
0.00735683
0.00746731
0.00756073
0.00763762
0.00769833
0.00774283
0.00777022
0.00777816
0.00776205
0.00771558
0.0076306
0.00749597
0.00729936
0.0070293
0.00667712
0.00623765
0.00570694
0.00507447
0.00430687
0.00331893
0.00195279
0.000257729
7.47965e-05
0.000509683
0.000936079
0.00136022
0.00178519
0.00220743
0.00262329
0.00303023
0.00342659
0.00381127
0.00418345
0.00454239
0.00488741
0.00521779
0.00553283
0.00583186
0.00611422
0.00637934
0.00662671
0.00685595
0.00706677
0.00725902
0.00743269
0.00758794
0.00772505
0.00784447
0.00794673
0.00803239
0.00810182
0.00815492
0.00819065
0.00820646
0.00819761
0.00815696
0.00807644
0.00794429
0.00774762
0.00747432
0.00711468
0.00666151
0.00610722
0.00543543
0.00460581
0.00352909
0.00206064
0.00026867
7.56595e-05
0.000519162
0.00096638
0.00141536
0.00186507
0.0023105
0.00274768
0.00317415
0.00358848
0.00398977
0.00437736
0.00475068
0.00510915
0.00545217
0.00577912
0.00608941
0.00638247
0.00665778
0.00691491
0.00715351
0.00737337
0.00757439
0.00775662
0.00792027
0.00806569
0.00819339
0.00830395
0.00839795
0.00847578
0.00853727
0.00858122
0.00860487
0.00860325
0.00856892
0.00849358
0.00836489
0.00816941
0.00789433
0.00752878
0.00706354
0.00648762
0.00577972
0.00489378
0.00373736
0.00217797
0.000280974
7.65569e-05
0.000529004
0.000998263
0.00147282
0.00194719
0.002415
0.00287221
0.00331663
0.00374718
0.00416326
0.00456444
0.00495034
0.00532053
0.00567451
0.00601177
0.00633181
0.00663411
0.00691825
0.00718384
0.00743061
0.0076584
0.00786717
0.00805703
0.00822825
0.00838125
0.00851659
0.0086349
0.0087368
0.00882266
0.00889225
0.00894423
0.00897559
0.00898109
0.00895337
0.00888386
0.00875952
0.00856639
0.00829096
0.00792118
0.00744592
0.00685124
0.00611202
0.0051786
0.00395925
0.00232802
0.0002961
2.97808e-05
7.83293e-05
0.000114849
0.000139913
0.000158188
0.000172399
0.000183959
0.000193671
0.000201311
0.000206626
0.000209736
0.000210766
0.00020988
0.000207286
0.000203233
0.000198004
0.000191739
0.000184958
0.00017831
0.000171856
0.000165707
0.000159935
0.000154563
0.000149562
0.000144866
0.000140458
0.00013627
0.000131985
0.00012736
0.000122155
0.000116099
0.000108882
0.000100138
8.94194e-05
7.61601e-05
5.96274e-05
3.95973e-05
5.93902e-05
0.000296065
0.000235332
0.000322881
0.000387106
0.00043937
0.000484045
0.000522875
0.000556299
0.000583272
0.000604733
0.000620708
0.000631115
0.000635969
0.000635415
0.000629753
0.000619445
0.000604936
0.000587358
0.000568042
0.000547927
0.000527778
0.000508185
0.000489534
0.000472002
0.000455544
0.000439723
0.000424612
0.000409824
0.000394872
0.000379188
0.000362132
0.000342968
0.000320808
0.000294491
0.000262288
0.000221417
0.000170854
0.000254419
7.84109e-05
0.000382499
0.000539065
0.000651751
0.00074467
0.000825093
0.000895767
0.00095737
0.00100917
0.00105239
0.00108685
0.00111208
0.00112771
0.00113355
0.00112971
0.00111662
0.00109492
0.00106626
0.00103271
0.000996263
0.000958618
0.000921171
0.000884928
0.000850473
0.000817927
0.000786768
0.000756961
0.000727984
0.000699061
0.000669242
0.000637436
0.000602371
0.000562476
0.000515583
0.000458225
0.000384204
0.000285702
0.000284623
8.78962e-05
0.000507348
0.000738199
0.000897826
0.00102754
0.00113968
0.00123896
0.00132693
0.00140341
0.00146944
0.0015245
0.00156757
0.00159769
0.00161411
0.00161645
0.00160487
0.00157994
0.00154359
0.00149844
0.00144739
0.00139312
0.00133792
0.00128356
0.00123121
0.00118132
0.00113356
0.00108778
0.00104327
0.000998938
0.000953447
0.000905222
0.000852403
0.000792644
0.000722611
0.000636801
0.000524697
0.000363874
0.000296174
9.59333e-05
0.000613432
0.000915299
0.00111643
0.00127626
0.00141381
0.00153647
0.00164698
0.00174586
0.00183392
0.00191015
0.00197293
0.00202049
0.00205133
0.00206439
0.00205924
0.00203618
0.00199695
0.0019445
0.00188244
0.00181427
0.00174318
0.00167181
0.00160202
0.00153479
0.00147015
0.00140796
0.00134735
0.00128695
0.00122505
0.00115958
0.00108808
0.0010074
0.00091299
0.000797281
0.000645497
0.000423536
0.000297315
0.000103276
0.000704857
0.00107028
0.00130616
0.00148911
0.00164562
0.00178617
0.00191478
0.00203298
0.00214135
0.00223841
0.00232185
0.00238906
0.00243763
0.00246561
0.00247176
0.00245582
0.00241894
0.00236412
0.00229538
0.00221691
0.00213268
0.00204619
0.00196014
0.00187618
0.00179484
0.00171615
0.00163918
0.00156235
0.00148361
0.00140042
0.00130974
0.00120758
0.00108823
0.000942162
0.000751025
0.000473019
7.08541e-05
0.000110422
0.000785135
0.00120481
0.00146835
0.00166788
0.00183741
0.00199061
0.00213287
0.00226698
0.00239342
0.00251027
0.00261455
0.00270283
0.00277171
0.0028182
0.00284008
0.00283629
0.0028069
0.00275478
0.00268405
0.00259932
0.0025052
0.00240602
0.00230532
0.00220558
0.002108
0.00201292
0.00191948
0.001826
0.00173012
0.00162891
0.00151872
0.00139481
0.00125031
0.001074
0.000844747
0.000517784
7.36767e-05
0.000117717
0.000857073
0.00132111
0.00160528
0.00181549
0.00199277
0.00215391
0.00230559
0.0024522
0.00259412
0.00272915
0.00285377
0.00296376
0.00305474
0.00312262
0.00316406
0.00317695
0.00315988
0.00311542
0.0030475
0.0029608
0.00286041
0.00275131
0.00263795
0.00252369
0.00241054
0.00229932
0.00218941
0.00207911
0.00196589
0.00184642
0.00171652
0.0015707
0.00140108
0.00119494
0.000929072
0.000557372
7.64292e-05
0.00012545
0.000922796
0.00142116
0.00171925
0.0019349
0.0021154
0.00228014
0.00243762
0.00259343
0.0027481
0.00289933
0.00304318
0.0031748
0.0032889
0.0033803
0.00344447
0.00347789
0.00347755
0.00344549
0.00338511
0.00330091
0.0031981
0.00308221
0.00295849
0.00283124
0.00270341
0.00257645
0.00245014
0.00232293
0.00219218
0.00205426
0.0019045
0.00173673
0.00154214
0.00130674
0.00100578
0.000592683
7.89043e-05
0.000133896
0.000983789
0.00150623
0.00181184
0.0020284
0.00220834
0.00237307
0.0025332
0.00269522
0.00285995
0.00302514
0.00318669
0.00333925
0.00347679
0.00359309
0.00368245
0.00373951
0.0037598
0.00374456
0.00369636
0.00361913
0.00351797
0.00339869
0.00326723
0.00312882
0.00298742
0.00284527
0.00270276
0.0025586
0.00241018
0.00225364
0.00208391
0.00189419
0.00167484
0.00141082
0.00107622
0.000624513
8.11326e-05
0.000143342
0.00104093
0.00157645
0.00188347
0.00209721
0.00227373
0.00243569
0.00259594
0.00276159
0.00293384
0.0031107
0.0032881
0.00346044
0.00362112
0.00376301
0.00387933
0.00396236
0.00400663
0.00401225
0.00398064
0.00391486
0.00381954
0.00370053
0.00356423
0.00341678
0.00326318
0.00310662
0.00294821
0.00278714
0.00262094
0.00244565
0.00225585
0.00204421
0.00180036
0.00150837
0.00114146
0.000653508
8.31595e-05
0.000154103
0.00109451
0.00163057
0.00193311
0.00214132
0.0023127
0.00247013
0.00262873
0.00279598
0.00297352
0.00315979
0.00335101
0.00354161
0.0037246
0.00389216
0.00403645
0.00414711
0.00421813
0.00424819
0.00423732
0.00418736
0.00410216
0.00398726
0.00384933
0.00369525
0.00353111
0.00336112
0.0031873
0.00300945
0.00282541
0.00263125
0.00242131
0.0021878
0.00191972
0.00160039
0.00120237
0.000680179
8.50226e-05
0.000166532
0.00114425
0.00166594
0.00195827
0.00215972
0.00232565
0.00247802
0.00263409
0.00280148
0.00298237
0.00317591
0.00337884
0.00358587
0.00378993
0.00398268
0.00415524
0.00429453
0.00439448
0.00445208
0.00446574
0.00443582
0.004365
0.00425822
0.00412212
0.00396414
0.0037914
0.00360923
0.00342066
0.00322629
0.00302443
0.00281133
0.00258118
0.00232585
0.0020338
0.00168772
0.00125966
0.000704937
8.67518e-05
0.000180987
0.00118944
0.00167931
0.00195582
0.00215116
0.00231296
0.00246112
0.00261462
0.00278119
0.00296379
0.00316249
0.00337491
0.00359631
0.00381982
0.00403681
0.00423709
0.00440549
0.00453596
0.00462371
0.0046653
0.00465937
0.00460715
0.00451259
0.00438198
0.00422311
0.00404402
0.0038512
0.00364877
0.00343829
0.00321873
0.00298665
0.00273626
0.00245916
0.00214339
0.0017711
0.00131393
0.000728116
8.83718e-05
0.0001979
0.0012286
0.00166882
0.00192426
0.00211595
0.00227621
0.00242235
0.00257379
0.00273882
0.0029215
0.00312319
0.00334268
0.0035761
0.00381703
0.00405694
0.00428339
0.00448099
0.00464303
0.004763
0.0048355
0.00485722
0.00482765
0.00474942
0.00462815
0.00447165
0.00428875
0.00408712
0.00387198
0.00364597
0.00340893
0.0031579
0.00288726
0.00258847
0.00224921
0.00185119
0.00136572
0.000749998
8.99046e-05
0.000220944
0.00126773
0.00163812
0.00186834
0.00205892
0.00222063
0.0023669
0.00251666
0.00267925
0.00286013
0.00306228
0.00328601
0.00352865
0.00378451
0.00404532
0.00429591
0.00452222
0.00471636
0.00487006
0.00497595
0.0050286
0.00502553
0.00496773
0.00485974
0.00470907
0.00452517
0.00431692
0.00409049
0.00384974
0.00359556
0.0033257
0.00303483
0.00271442
0.00235189
0.00192857
0.00141549
0.000770825
9.1373e-05
7.76795e-05
0.000542178
0.00104205
0.0015532
0.00206333
0.00256378
0.00305012
0.00352051
0.00397435
0.00441149
0.00483189
0.00523544
0.00562196
0.00599115
0.00634266
0.00667612
0.00699117
0.00728747
0.00756478
0.00782293
0.00806185
0.00828164
0.00848251
0.00866485
0.00882919
0.0089762
0.00910662
0.00922115
0.00932018
0.00940343
0.00946937
0.00951467
0.0095336
0.00951766
0.00945833
0.00934214
0.00915454
0.00888102
0.00850782
0.00802109
0.00740316
0.00662538
0.00563889
0.00437511
0.00278227
0.000788778
7.96596e-05
0.000563229
0.00111059
0.0016729
0.00222901
0.00276887
0.00328881
0.00378812
0.00426716
0.00472657
0.00516689
0.00558847
0.00599145
0.0063758
0.0067414
0.00708807
0.0074156
0.00772385
0.0080127
0.00828213
0.00853225
0.00876329
0.00897562
0.00916979
0.00934649
0.00950651
0.00965072
0.0097799
0.00989448
0.00999412
0.0100771
0.0101395
0.010175
0.0101738
0.0101261
0.0100187
0.00983672
0.0095648
0.00918772
0.0086898
0.00805197
0.0072469
0.00623472
0.00496956
0.0034314
0.00165995
8.20327e-05
0.000585514
0.00118067
0.00179108
0.00238865
0.00296321
0.00351223
0.0040361
0.00453613
0.00501368
0.00546987
0.00590549
0.00632103
0.00671676
0.00709278
0.00744909
0.0077857
0.00810259
0.00839983
0.00867754
0.00893597
0.0091755
0.00939667
0.00960018
0.00978686
0.00995763
0.0101134
0.0102551
0.0103833
0.0104974
0.0105956
0.0106738
0.0107251
0.0107395
0.0107046
0.0106087
0.0104366
0.0101727
0.00980136
0.00930659
0.00867043
0.00787008
0.00687682
0.00566387
0.00423798
0.00270703
8.47068e-05
0.000606612
0.00124355
0.00189445
0.00252748
0.00313262
0.00370774
0.00425369
0.00477235
0.00526565
0.00573524
0.00618236
0.0066079
0.00701242
0.00739629
0.00775973
0.00810292
0.00842604
0.0087293
0.00901299
0.0092775
0.00952335
0.00975124
0.00996204
0.0101567
0.0103363
0.0105017
0.0106541
0.0107939
0.010921
0.0110333
0.0111262
0.0111926
0.0112223
0.0112021
0.0111203
0.0109621
0.0107123
0.0103558
0.0098778
0.00926296
0.00849431
0.00755427
0.00643258
0.00515312
0.00383837
8.74025e-05
0.000623383
0.00128929
0.00197001
0.00263268
0.00326579
0.00386576
0.00443288
0.0049691
0.00547684
0.00595829
0.00641522
0.00684895
0.00726041
0.00765024
0.00801892
0.00836681
0.00869429
0.00900173
0.00928957
0.00955833
0.00980869
0.0100415
0.0102578
0.0104587
0.0106452
0.0108185
0.0109798
0.0111299
0.0112687
0.0113942
0.0115015
0.011583
0.0116284
0.0116246
0.0115587
0.0114177
0.0111873
0.0108538
0.0104042
0.0098263
0.00910883
0.00824351
0.0072323
0.00610775
0.00497875
8.96617e-05
0.000631157
0.00130782
0.00200754
0.002696
0.00335639
0.00398127
0.00456933
0.00512244
0.00564354
0.00613553
0.00660081
0.00704119
0.00745801
0.00785221
0.00822451
0.00857551
0.00890576
0.00921581
0.00950623
0.00977767
0.0100309
0.010267
0.0104872
0.0106927
0.0108845
0.0110637
0.0112319
0.0113906
0.0115404
0.011679
0.0118009
0.0118979
0.0119594
0.0119728
0.0119246
0.0118034
0.0115967
0.0112926
0.0108804
0.0103507
0.00969685
0.00891712
0.00802071
0.00704154
0.00606497
9.09468e-05
0.000621371
0.00129093
0.00200327
0.00271675
0.00340489
0.00405455
0.00466258
0.00523106
0.00576377
0.00626448
0.00673631
0.00718163
0.00760216
0.00799913
0.00837349
0.00872606
0.0090576
0.00936882
0.0096604
0.00993306
0.0101877
0.0104256
0.0106481
0.0108567
0.0110521
0.011235
0.0114075
0.0115727
0.0117328
0.0118848
0.0120224
0.0121358
0.0122135
0.0122437
0.0122141
0.012114
0.0119335
0.0116629
0.0112941
0.0108197
0.0102361
0.00954571
0.00876054
0.00791109
0.00706071
9.08626e-05
0.000580653
0.00123765
0.00196513
0.00270471
0.00341941
0.00409101
0.00471546
0.00529577
0.00583693
0.00634363
0.00681963
0.0072678
0.0076902
0.00808823
0.00846303
0.00881567
0.00914714
0.00945833
0.00974997
0.0100227
0.0102774
0.0105157
0.0107396
0.0109506
0.0111482
0.011332
0.0115049
0.0116741
0.0118447
0.0120109
0.0121648
0.0122942
0.012387
0.0124323
0.0124196
0.0123394
0.0121845
0.0119484
0.0116252
0.0112087
0.0106974
0.0100956
0.00941517
0.0086808
0.00793862
8.96544e-05
0.000505846
0.00116631
0.00191556
0.00267676
0.00341145
0.00409844
0.0047334
0.00532077
0.00586675
0.0063767
0.0068547
0.00730402
0.00772692
0.00812472
0.00849883
0.00885069
0.00918151
0.00949246
0.00978414
0.0100566
0.0103106
0.0105483
0.0107734
0.010988
0.0111876
0.0113686
0.0115352
0.0117034
0.0118867
0.0120719
0.0122478
0.0123906
0.0124894
0.0125399
0.0125357
0.0124686
0.0123327
0.012126
0.0118462
0.011486
0.011044
0.0105271
0.0099446
0.00931408
0.00866889
8.86782e-05
0.000407066
0.00110653
0.00187818
0.00264817
0.00339368
0.00408899
0.00472841
0.00531807
0.00586543
0.00637603
0.00685385
0.00730259
0.00772696
0.00812543
0.00849862
0.00885168
0.00918285
0.00949391
0.00978563
0.0100581
0.010312
0.0105497
0.0107747
0.0109889
0.0111882
0.0113689
0.0115354
0.0117035
0.0118865
0.0120715
0.0122476
0.0123989
0.0125129
0.0125722
0.0125724
0.0125081
0.0123746
0.0121782
0.0119308
0.0116185
0.0112346
0.010795
0.0103055
0.00977113
0.00921651
0.000104456
0.00041897
0.00110993
0.00187906
0.00264728
0.00339142
0.00408796
0.00473191
0.00532913
0.00588717
0.00641245
0.00691221
0.00739779
0.0078793
0.00830813
0.00871877
0.00909693
0.00944687
0.00976613
0.0100577
0.0103229
0.010564
0.0107845
0.0109891
0.01118
0.0113557
0.0115154
0.0116649
0.0118151
0.0119728
0.0121357
0.0122985
0.0124498
0.0125022
0.0125682
0.0125707
0.0125074
0.0123681
0.0121535
0.0118959
0.0115812
0.0112202
0.0108544
0.0104591
0.0100134
0.00954131
0.000131039
0.000639325
0.00137652
0.00211205
0.00284912
0.00357773
0.00427938
0.00494735
0.0055784
0.00617084
0.00672437
0.00724017
0.00772093
0.00816935
0.0085832
0.00896862
0.00932479
0.00965429
0.00995665
0.0102336
0.0104865
0.0107168
0.0109269
0.0111205
0.0113003
0.0114671
0.0116217
0.0117679
0.0119127
0.0120602
0.0122072
0.0123426
0.0124441
0.0124854
0.0125279
0.0125566
0.0125427
0.0124468
0.0121921
0.011908
0.0115871
0.0111769
0.0108028
0.0104268
0.0100185
0.009605
0.000137078
0.000807776
0.0015542
0.00227259
0.00301085
0.00375256
0.00447486
0.00516617
0.0058202
0.00643315
0.00700299
0.0075293
0.00801304
0.00845612
0.00886045
0.00922916
0.0095649
0.00987064
0.0101486
0.0104014
0.0106312
0.0108404
0.0110314
0.0112074
0.0113713
0.0115255
0.0116714
0.011812
0.0119513
0.0120916
0.01223
0.0123573
0.0124599
0.0125322
0.0125918
0.0126397
0.0126509
0.0125897
0.0124324
0.0122279
0.0119713
0.0115682
0.0108576
0.0104432
0.0100012
0.00956646
0.000132242
0.000848324
0.00165043
0.00239777
0.00315774
0.00392006
0.00466452
0.00537728
0.00604997
0.00667762
0.00725763
0.00778927
0.00827332
0.00871168
0.00910696
0.00946225
0.00978095
0.0100666
0.0103225
0.0105521
0.0107584
0.0109447
0.011114
0.0112696
0.0114147
0.0115524
0.0116851
0.0118152
0.0119455
0.0120769
0.0122071
0.0123298
0.0124371
0.0125258
0.0126013
0.0126643
0.0126998
0.0126854
0.0126063
0.0124718
0.0122833
0.0120003
0.0115955
0.011187
0.01068
0.0097397
0.000126765
0.000863831
0.0016926
0.00249015
0.00329018
0.00408406
0.00485484
0.00558904
0.00627793
0.00691649
0.00750237
0.00803523
0.00851627
0.0089478
0.00933286
0.00967493
0.00997779
0.0102454
0.0104815
0.0106901
0.0108749
0.0110395
0.0111876
0.0113226
0.0114484
0.0115682
0.011685
0.0118015
0.0119196
0.0120398
0.0121604
0.0122771
0.0123847
0.0124806
0.0125657
0.0126389
0.012691
0.0127079
0.012678
0.0126004
0.0124761
0.0122899
0.0120276
0.0117134
0.0113278
0.010811
0.000124257
0.000858195
0.00170885
0.00256574
0.00341905
0.00425415
0.0050556
0.00581163
0.00651476
0.00716103
0.00774912
0.00827962
0.00875452
0.0091768
0.00955004
0.00987821
0.0101655
0.010416
0.0106341
0.0108238
0.0109893
0.0111346
0.0112635
0.01138
0.0114878
0.0115906
0.0116917
0.0117939
0.0118988
0.0120072
0.0121175
0.012227
0.0123317
0.0124292
0.012518
0.012596
0.0126568
0.0126909
0.0126897
0.01265
0.0125714
0.0124472
0.0122684
0.0120392
0.0117594
0.0114169
0.000124479
0.000833616
0.00171736
0.0026395
0.00355349
0.00443534
0.00526976
0.00604719
0.00676246
0.00741358
0.00800083
0.00852612
0.0089925
0.00940373
0.00976405
0.0100779
0.0103498
0.0105844
0.0107861
0.0109592
0.0111081
0.0112369
0.0113498
0.0114508
0.0115438
0.0116326
0.0117204
0.0118101
0.0119036
0.0120012
0.0121022
0.0122042
0.0123042
0.0123992
0.012487
0.0125645
0.0126266
0.0126669
0.0126789
0.0126594
0.0126072
0.0125189
0.0123894
0.012219
0.0120098
0.0117594
0.000126265
0.000813063
0.00173417
0.00272245
0.0036983
0.00462755
0.00549432
0.00629141
0.00701641
0.00766977
0.00825377
0.00877186
0.00922822
0.00962752
0.00997464
0.0102745
0.0105321
0.0107522
0.0109394
0.0110985
0.0112337
0.0113495
0.0114502
0.0115397
0.011622
0.0117009
0.0117796
0.0118607
0.011946
0.012036
0.0121298
0.0122253
0.0123196
0.0124097
0.0124923
0.0125641
0.0126209
0.0126579
0.0126705
0.0126561
0.0126135
0.0125413
0.0124376
0.0123018
0.0121358
0.0119404
0.000129078
0.00080521
0.00176835
0.0028201
0.00385399
0.00482717
0.00572317
0.00653705
0.00726916
0.00792252
0.00850147
0.00901108
0.00945674
0.009844
0.0101784
0.0104653
0.01071
0.0109175
0.0110929
0.0112407
0.0113656
0.0114721
0.0115644
0.0116468
0.0117231
0.0117969
0.0118713
0.0119487
0.0120304
0.0121166
0.0122063
0.0122971
0.0123859
0.0124693
0.0125437
0.0126055
0.0126511
0.0126769
0.0126799
0.0126584
0.0126118
0.0125401
0.0124431
0.012322
0.0121782
0.0120133
0.000132434
0.000811217
0.00182157
0.00293232
0.00401757
0.00502876
0.00594939
0.00677656
0.00751319
0.00816467
0.00873735
0.00923784
0.00967271
0.0100484
0.0103709
0.0106463
0.0108799
0.0110772
0.0112432
0.0113828
0.0115007
0.0116016
0.0116897
0.0117693
0.0118442
0.0119178
0.0119929
0.0120714
0.0121541
0.0122407
0.0123294
0.0124176
0.0125016
0.0125775
0.0126415
0.0126901
0.0127201
0.012729
0.0127151
0.0126778
0.0126174
0.0125348
0.0124313
0.0123085
0.0121693
0.0120168
0.000135916
0.000828957
0.00189063
0.00305504
0.00418405
0.00522653
0.00616671
0.00700359
0.00774236
0.00839049
0.00895614
0.00944734
0.00987177
0.0102366
0.0105485
0.0108138
0.0110383
0.0112276
0.0113868
0.0115211
0.0116353
0.011734
0.0118217
0.0119026
0.0119804
0.0120582
0.0121384
0.0122224
0.0123101
0.0124005
0.0124911
0.0125784
0.0126581
0.0127261
0.0127782
0.0128112
0.0128227
0.0128112
0.0127761
0.012718
0.0126381
0.0125382
0.01242
0.0122861
0.0121393
0.0119839
0.000139241
0.000855382
0.00197021
0.00318256
0.00434796
0.0054153
0.00637021
0.00721354
0.00795241
0.00859611
0.00915436
0.00963647
0.0100511
0.0104061
0.0107087
0.0109655
0.0111827
0.0113661
0.0115209
0.0116525
0.0117657
0.0118655
0.0119561
0.0120418
0.0121261
0.0122119
0.0123008
0.0123937
0.0124895
0.0125862
0.0126804
0.0127675
0.012843
0.0129021
0.0129411
0.012957
0.0129482
0.0129145
0.0128564
0.0127756
0.0126739
0.0125538
0.0124176
0.0122679
0.012108
0.0119423
0.000142248
0.000887486
0.00205479
0.00330928
0.00450448
0.00559109
0.00655658
0.00740359
0.00814095
0.0087795
0.00933028
0.00980371
0.0102093
0.0105555
0.0108501
0.0111
0.0113116
0.0114909
0.0116434
0.0117745
0.0118893
0.0119927
0.012089
0.0121824
0.0122762
0.0123727
0.0124731
0.0125771
0.0126829
0.0127871
0.0128852
0.0129721
0.0130424
0.0130915
0.0131159
0.0131134
0.0130835
0.013027
0.0129456
0.0128419
0.0127184
0.012578
0.0124232
0.0122565
0.0120814
0.0119024
0.000144861
0.000922639
0.00213967
0.00343064
0.00465004
0.0057513
0.006724
0.0075725
0.00830714
0.00894012
0.0094836
0.00994893
0.0103463
0.0106849
0.0109727
0.011217
0.0114246
0.0116014
0.0117534
0.0118859
0.0120042
0.0121132
0.0122174
0.0123207
0.0124261
0.0125353
0.0126488
0.0127652
0.0128815
0.0129931
0.0130946
0.0131799
0.0132435
0.013281
0.0132893
0.0132674
0.0132158
0.0131365
0.0130324
0.0129066
0.0127624
0.0126026
0.0124299
0.0122466
0.0120561
0.011863
0.000147059
0.000958708
0.0022213
0.00354347
0.00478239
0.00589462
0.00687189
0.00772023
0.00845133
0.00907856
0.00961505
0.0100729
0.0104631
0.010795
0.0110772
0.0113172
0.0115219
0.0116977
0.0118505
0.0119859
0.0121092
0.0122255
0.0123391
0.0124538
0.0125721
0.0126951
0.0128223
0.0129512
0.0130776
0.0131956
0.0132988
0.0133807
0.0134357
0.0134596
0.0134504
0.0134082
0.0133346
0.0132329
0.0131068
0.0129601
0.0127963
0.0126182
0.0124284
0.0122292
0.0120235
0.011816
0.000148847
0.000994015
0.00229728
0.00364586
0.00490046
0.00602076
0.0070006
0.00784757
0.00857462
0.00919612
0.00972606
0.0101772
0.0105609
0.0108872
0.0111648
0.0114015
0.0116045
0.0117803
0.011935
0.0120743
0.0122038
0.0123283
0.0124523
0.0125792
0.012711
0.0128481
0.0129888
0.0131295
0.0132647
0.0133874
0.0134904
0.0135666
0.0136108
0.0136193
0.0135913
0.013528
0.0134323
0.0133085
0.0131611
0.0129943
0.0128117
0.0126162
0.0124098
0.0121948
0.0119738
0.0117515
0.000150245
0.0010273
0.00236614
0.00373692
0.00500406
0.00613017
0.00711108
0.00795585
0.00867856
0.0092945
0.00981834
0.0102634
0.0106415
0.010963
0.0112369
0.0114712
0.0116734
0.0118499
0.0120072
0.0121512
0.0122874
0.0124208
0.0125556
0.0126948
0.0128401
0.0129908
0.0131442
0.0132954
0.0134377
0.013563
0.0136634
0.0137318
0.0137631
0.0137547
0.0137067
0.0136217
0.0135039
0.0133582
0.0131899
0.0130035
0.0128026
0.0125897
0.0123667
0.0121354
0.0118985
0.0116603
0.000151279
0.00105767
0.0024271
0.00381641
0.00509354
0.00622371
0.00720458
0.00804658
0.00876485
0.00937546
0.00989371
0.0103334
0.0107067
0.0110241
0.011295
0.0115276
0.0117294
0.0119073
0.0120677
0.0122166
0.0123598
0.0125021
0.0126476
0.0127989
0.012957
0.0131203
0.0132852
0.0134452
0.0135926
0.0137184
0.013814
0.0138725
0.0138892
0.0138626
0.0137938
0.0136867
0.0135465
0.0133792
0.0131902
0.0129843
0.012765
0.0125345
0.0122943
0.0120458
0.0117914
0.0115358
0.000151979
0.00108453
0.00247981
0.00388451
0.00516957
0.00630243
0.00728244
0.0081213
0.00883514
0.00944073
0.00995388
0.0103888
0.0107578
0.0110718
0.0113403
0.0115717
0.0117736
0.0119531
0.0121167
0.0122707
0.0124206
0.0125715
0.0127271
0.0128898
0.0130597
0.0132344
0.013409
0.0135762
0.0137267
0.0138509
0.0139399
0.0139868
0.0139877
0.0139418
0.0138517
0.0137222
0.0135595
0.0133704
0.0131607
0.0129353
0.0126973
0.0124487
0.0121904
0.0119235
0.01165
0.0113747
0.000152372
0.00110743
0.0025242
0.00394162
0.00523293
0.00636739
0.0073459
0.00818141
0.00889091
0.0094918
0.0100003
0.010431
0.0107963
0.0111075
0.011374
0.0116045
0.0118067
0.0119878
0.0121546
0.0123132
0.0124695
0.0126283
0.0127932
0.0129662
0.0131465
0.0133312
0.013514
0.0136863
0.0138382
0.0139592
0.0140402
0.0140743
0.0140584
0.0139927
0.0138808
0.0137288
0.0135436
0.0133327
0.0131023
0.0128571
0.0126003
0.0123332
0.0120561
0.0117695
0.0114751
0.0111776
0.000152487
0.00112608
0.00256038