/*--------------------------------*- C++ -*----------------------------------*\
  =========                 |
  \\      /  F ield         | OpenFOAM: The Open Source CFD Toolbox
   \\    /   O peration     | Website:  https://openfoam.org
    \\  /    A nd           | Version:  7
     \\/     M anipulation  |
\*---------------------------------------------------------------------------*/
FoamFile
{
    version     2.0;
    format      ascii;
    class       volScalarField;
    location    "0.35";
    object      p;
}
// * * * * * * * * * * * * * * * * * * * * * * * * * * * * * * * * * * * * * //

dimensions      [1 -1 -2 0 0 0 0];

internalField   nonuniform List<scalar> 
9072
(
1098.86
1098.77
1102.85
1108.95
1115.34
1121.09
1125.95
1129.94
1133.16
1135.79
1137.95
1139.77
1141.33
1142.71
1143.97
1145.16
1146.31
1147.48
1148.69
1150
1151.47
1153.14
1155.12
1157.5
1160.39
1163.97
1168.41
1173.94
1180.86
1189.52
1200.35
1214.04
1230.96
1251.76
1277.01
1307.25
1342.65
1382.47
1424.6
1465.33
1499.87
1525.82
1533.94
1534.99
1553.88
1586.65
1069.2
1068.51
1071.79
1077.12
1082.89
1088.26
1092.92
1096.82
1100.03
1102.67
1104.84
1106.67
1108.22
1109.58
1110.8
1111.95
1113.05
1114.17
1115.34
1116.62
1118.06
1119.74
1121.75
1124.18
1127.18
1130.9
1135.55
1141.36
1148.63
1157.71
1169.03
1183.05
1200.63
1222.17
1248.36
1279.79
1316.69
1358.44
1402.96
1446.26
1482.5
1508.85
1514.64
1505.56
1510.74
1548.52
1038.94
1038.52
1041.27
1045.67
1050.61
1055.37
1059.62
1063.24
1066.27
1068.78
1070.84
1072.56
1074.01
1075.26
1076.36
1077.39
1078.37
1079.38
1080.45
1081.65
1083.04
1084.7
1086.73
1089.24
1092.37
1096.29
1101.22
1107.4
1115.13
1124.78
1136.78
1151.62
1170.01
1192.5
1219.75
1252.25
1290.16
1332.88
1378.41
1422.84
1459.87
1486.15
1493.04
1482.38
1472.86
1514.01
1008.46
1008.64
1011.09
1014.78
1018.99
1023.12
1026.87
1030.12
1032.86
1035.12
1036.98
1038.51
1039.78
1040.84
1041.77
1042.62
1043.44
1044.29
1045.22
1046.31
1047.61
1049.23
1051.25
1053.81
1057.05
1061.15
1066.33
1072.85
1081.01
1091.2
1103.82
1119.38
1138.48
1161.73
1189.72
1222.87
1261.21
1304.07
1349.48
1393.8
1431.07
1457.22
1467.11
1459.25
1444.09
1486.12
977.923
978.783
981.064
984.259
987.88
991.453
994.719
997.563
999.962
1001.94
1003.55
1004.84
1005.89
1006.74
1007.46
1008.11
1008.74
1009.41
1010.18
1011.13
1012.33
1013.86
1015.85
1018.42
1021.73
1025.96
1031.33
1038.11
1046.61
1057.2
1070.32
1086.41
1106.04
1129.81
1158.21
1191.58
1229.86
1272.31
1317.04
1360.79
1398.32
1425.35
1438.46
1435.42
1425.7
1466.38
947.248
948.753
950.987
953.835
956.986
960.071
962.887
965.336
967.391
969.067
970.404
971.45
972.259
972.887
973.391
973.828
974.256
974.738
975.338
976.132
977.201
978.642
980.569
983.116
986.444
990.744
996.243
1003.21
1011.95
1022.84
1036.3
1052.75
1072.74
1096.78
1125.33
1158.61
1196.48
1238.19
1281.97
1324.97
1362.81
1391.44
1407.64
1410.61
1410.3
1455.33
916.375
918.447
920.725
923.34
926.112
928.773
931.178
933.251
934.969
936.343
937.404
938.195
938.763
939.163
939.446
939.671
939.897
940.188
940.612
941.246
942.177
943.505
945.348
947.845
951.159
955.486
961.054
968.132
977.032
988.111
1001.77
1018.44
1038.59
1062.7
1091.15
1124.08
1161.3
1202.04
1244.72
1286.87
1324.9
1355.23
1374.81
1384.42
1396.02
1449.25
885.311
887.849
890.22
892.677
895.138
897.432
899.463
901.184
902.578
903.657
904.446
904.983
905.313
905.485
905.551
905.568
905.594
905.695
905.942
906.413
907.199
908.404
910.146
912.569
915.838
920.151
925.735
932.86
941.833
953.001
966.752
983.489
1003.64
1027.63
1055.77
1088.14
1124.51
1164.11
1205.56
1246.75
1284.78
1316.67
1339.88
1356.47
1381.04
1444.3
854.064
856.977
859.455
861.791
863.99
865.959
867.652
869.045
870.132
870.926
871.451
871.741
871.838
871.788
871.643
871.457
871.289
871.205
871.276
871.585
872.222
873.294
874.922
877.251
880.447
884.708
890.262
897.374
906.345
917.513
931.246
947.923
967.927
991.629
1019.28
1050.92
1086.25
1124.58
1164.67
1204.77
1242.55
1275.63
1302.3
1325.59
1363.08
1438.28
822.633
825.851
828.424
830.654
832.619
834.295
835.679
836.767
837.564
838.086
838.356
838.408
838.28
838.017
837.668
837.287
836.931
836.667
836.567
836.714
837.2
838.133
839.636
841.853
844.952
849.129
854.609
861.654
870.557
881.644
895.264
911.769
931.497
954.77
981.789
1012.53
1046.7
1083.63
1122.23
1161.02
1198.17
1231.88
1261.34
1290.39
1339.71
1425.98
791.018
794.485
797.129
799.252
800.999
802.404
803.499
804.302
804.825
805.089
805.117
804.941
804.598
804.13
803.585
803.016
802.48
802.043
801.776
801.762
802.096
802.885
804.253
806.343
809.323
813.386
818.756
825.686
834.462
845.398
858.822
875.058
894.403
917.127
943.388
973.117
1006
1041.4
1078.34
1115.57
1151.62
1185.15
1216.26
1249.37
1308.96
1405.24
759.224
762.892
765.576
767.582
769.118
770.265
771.088
771.621
771.885
771.904
771.702
771.308
770.759
770.095
769.363
768.614
767.905
767.3
766.87
766.699
766.88
767.521
768.745
770.695
773.537
777.461
782.685
789.458
798.057
808.78
821.937
837.825
856.698
878.779
904.181
932.795
964.283
998.031
1033.14
1068.49
1102.85
1135.19
1166.39
1200.97
1268.51
1371.77
727.256
731.088
733.777
735.65
736.974
737.871
738.433
738.708
738.726
738.51
738.088
737.488
736.742
735.891
734.979
734.057
733.181
732.412
731.823
731.496
731.523
732.012
733.085
734.883
737.569
741.33
746.38
752.959
761.335
771.795
784.627
800.103
818.435
839.8
864.268
891.69
921.7
953.683
986.768
1019.88
1051.9
1081.87
1111.13
1143.54
1215.68
1319.07
695.119
699.089
701.744
703.464
704.571
705.221
705.529
705.555
705.334
704.894
704.26
703.46
702.524
701.491
700.405
699.314
698.273
697.344
696.597
696.113
695.984
696.316
697.23
698.864
701.379
704.956
709.805
716.158
724.275
734.429
746.893
761.91
779.655
800.26
823.749
849.932
878.408
908.535
939.424
969.967
998.961
1025.28
1050.13
1075.56
1147.6
1236.66
662.827
666.911
669.492
671.036
671.921
672.326
672.385
672.168
671.716
671.056
670.215
669.221
668.101
666.891
665.634
664.377
663.173
662.084
661.178
660.536
660.247
660.417
661.164
662.624
664.953
668.329
672.954
679.054
686.879
696.695
708.755
723.28
740.412
760.232
782.719
807.642
834.552
862.76
891.313
918.978
944.301
965.63
983.159
995.733
1059.58
1104.88
630.398
634.539
637.023
638.38
639.045
639.216
639.037
638.589
637.916
637.047
636.011
634.832
633.539
632.163
630.746
629.334
627.978
626.738
625.683
624.89
624.449
624.46
625.041
626.325
628.462
631.625
636.007
641.828
649.33
658.767
670.38
684.364
700.83
719.814
741.246
764.848
790.12
816.311
842.36
866.828
887.818
902.759
909.582
903.153
935.377
896.641
7.19101
7.18654
7.1819
7.1778
7.17537
7.17522
7.1771
7.18065
7.18507
7.18976
7.19399
7.1972
7.19898
7.19899
7.19703
7.193
7.1869
7.1788
7.16884
7.15725
7.14432
7.13037
7.11577
7.10083
7.08589
7.07119
7.05701
7.04352
7.03093
7.0194
7.00905
7
6.99238
6.98624
6.98167
6.97864
6.97697
6.97652
7.16216
7.1586
7.15448
7.15009
7.14706
7.14616
7.14734
7.15021
7.15406
7.15826
7.1621
7.16504
7.16666
7.16662
7.16471
7.16081
7.15493
7.14709
7.13742
7.12615
7.11354
7.09991
7.08558
7.07091
7.05618
7.04169
7.02765
7.0143
7.0018
6.99033
6.98003
6.97101
6.96338
6.9572
6.95256
6.94943
6.94761
6.94716
7.13349
7.12996
7.12596
7.12152
7.11824
7.11687
7.11751
7.11984
7.12314
7.12685
7.13031
7.13295
7.13439
7.13428
7.1324
7.12864
7.12296
7.1154
7.10605
7.09511
7.08284
7.06952
7.05549
7.04106
7.02653
7.01218
6.99825
6.98495
6.9725
6.96104
6.95074
6.94172
6.93407
6.92786
6.92316
6.91995
6.91803
6.9177
7.10493
7.10061
7.09633
7.09187
7.08857
7.08698
7.0873
7.08929
7.0922
7.09556
7.09871
7.10112
7.10241
7.10224
7.10038
7.09672
7.09122
7.08389
7.07483
7.0642
7.05224
7.03922
7.02545
7.01123
6.99685
6.98259
6.96869
6.95539
6.9429
6.9314
6.92106
6.912
6.90434
6.89811
6.89337
6.89011
6.88814
6.88795
7.07631
7.07064
7.06576
7.06125
7.05808
7.05649
7.05673
7.05856
7.06127
7.0644
7.06737
7.06963
7.07083
7.07062
7.06878
7.06519
7.05982
7.05268
7.04385
7.03349
7.02179
7.00903
6.99546
6.9814
6.96711
6.95288
6.93896
6.92558
6.91298
6.90138
6.89096
6.88185
6.87417
6.86795
6.86321
6.85994
6.858
6.85781
7.04729
7.03999
7.03427
7.02972
7.02683
7.02544
7.02582
7.02769
7.03037
7.03342
7.03631
7.03851
7.03967
7.03945
7.03763
7.03411
7.02884
7.02184
7.01318
7.00301
6.99151
6.97892
6.9655
6.95152
6.93728
6.92302
6.90902
6.89551
6.88277
6.87102
6.86048
6.8513
6.8436
6.83741
6.83271
6.82948
6.82764
6.82747
7.01758
7.00847
7.00177
6.99731
6.99484
6.99389
6.99461
6.9967
6.99951
7.00262
7.00553
7.00775
7.00893
7.00875
7.00696
7.00349
6.99829
6.99138
6.98283
6.97277
6.96138
6.94888
6.93552
6.92155
6.90728
6.89296
6.87884
6.86519
6.85227
6.84036
6.82967
6.82041
6.81268
6.80652
6.80189
6.79874
6.79705
6.79699
6.98689
6.97585
6.96812
6.96401
6.96213
6.96188
6.96311
6.96561
6.96871
6.97199
6.97505
6.97735
6.9786
6.97848
6.97674
6.97331
6.96816
6.96129
6.95279
6.94277
6.93139
6.91888
6.90547
6.89144
6.87707
6.86265
6.84841
6.83461
6.82153
6.80944
6.7986
6.78922
6.78144
6.77531
6.77076
6.76772
6.76619
6.76624
6.95481
6.94184
6.9331
6.92976
6.92871
6.92943
6.93138
6.93445
6.93798
6.94157
6.94485
6.94732
6.94869
6.94864
6.94694
6.94354
6.9384
6.93153
6.92303
6.91297
6.90152
6.88891
6.87537
6.86117
6.84665
6.83207
6.81769
6.80375
6.79052
6.77829
6.7673
6.7578
6.74994
6.74381
6.73933
6.7364
6.73502
6.7352
6.92076
6.90608
6.89644
6.89452
6.8946
6.89659
6.89946
6.90326
6.90736
6.91134
6.91495
6.91765
6.91917
6.91922
6.91755
6.91416
6.90898
6.90206
6.89349
6.88332
6.87174
6.85895
6.8452
6.83077
6.81601
6.80123
6.78668
6.7726
6.75926
6.74691
6.7358
6.72617
6.71822
6.71205
6.7076
6.70477
6.70353
6.70384
6.88374
6.86807
6.85782
6.85821
6.85985
6.86343
6.86741
6.87208
6.87685
6.88132
6.88532
6.88831
6.89003
6.8902
6.88856
6.88514
6.87988
6.87284
6.86412
6.85378
6.842
6.82899
6.81497
6.80025
6.7852
6.77016
6.7554
6.74117
6.72773
6.7153
6.70409
6.69435
6.68629
6.68004
6.67558
6.67281
6.6717
6.67213
6.84213
6.82715
6.81696
6.82083
6.82455
6.83004
6.83533
6.84097
6.84648
6.85151
6.85594
6.85927
6.86123
6.86154
6.85994
6.85648
6.85109
6.84385
6.83491
6.82432
6.81228
6.79899
6.78468
6.76964
6.75427
6.73891
6.7239
6.70948
6.69592
6.68343
6.67217
6.66234
6.65416
6.6478
6.64327
6.64051
6.63951
6.64006
6.79306
6.78264
6.77377
6.7825
6.7889
6.7966
6.80335
6.81002
6.8163
6.82192
6.8268
6.83051
6.83273
6.8332
6.83167
6.82816
6.82262
6.81514
6.8059
6.79497
6.78257
6.76895
6.75431
6.73895
6.72323
6.70755
6.69222
6.67757
6.66385
6.65128
6.63998
6.63011
6.62182
6.61532
6.61067
6.60786
6.60694
6.60762
6.73202
6.73399
6.72875
6.74363
6.75326
6.76338
6.77164
6.77938
6.78642
6.79262
6.79794
6.80202
6.8045
6.80514
6.80369
6.80016
6.79447
6.78674
6.77714
6.7658
6.75295
6.7389
6.72388
6.70815
6.6921
6.67608
6.66043
6.64548
6.63154
6.61885
6.6075
6.59759
6.58922
6.58257
6.57775
6.57486
6.57399
6.57479
6.64877
6.67831
6.68201
6.70451
6.71799
6.73062
6.7404
6.74916
6.75693
6.76367
6.76941
6.77384
6.77657
6.77734
6.77598
6.77242
6.76661
6.75864
6.74868
6.73688
6.72352
6.70894
6.69343
6.67728
6.66086
6.64452
6.62855
6.61328
6.59905
6.58616
6.57471
6.56475
6.55631
6.54951
6.54451
6.54148
6.54064
6.54156
6.53734
6.59959
6.63062
6.66407
6.68282
6.69815
6.70931
6.71903
6.7275
6.73479
6.74099
6.74583
6.74885
6.7498
6.74853
6.74494
6.739
6.73079
6.72047
6.70822
6.69434
6.67918
6.6631
6.64644
6.62959
6.61289
6.5966
6.58101
6.56646
6.55327
6.54163
6.53155
6.523
6.51606
6.51087
6.50772
6.5069
6.50792
579.479
583.588
585.952
587.031
587.364
587.187
586.657
585.865
584.866
583.693
582.372
580.93
579.392
577.789
576.155
574.534
572.975
571.535
570.28
569.285
568.633
568.423
568.765
569.785
571.626
574.446
578.426
583.769
590.705
599.477
610.301
623.334
638.639
656.176
675.789
697.134
719.635
742.432
764.274
783.328
796.848
800.497
787.634
745.819
661.137
352.3
509.64
513.746
515.846
516.519
516.389
515.735
514.731
513.484
512.056
510.484
508.796
507.018
505.172
503.284
501.385
499.511
497.708
496.028
494.531
493.286
492.372
491.877
491.901
492.561
493.985
496.314
499.698
504.32
510.399
518.175
527.851
539.539
553.228
568.775
585.907
604.198
622.995
641.344
657.838
670.371
675.748
669.022
642.249
581.319
470.316
317.507
439.423
443.501
445.25
445.475
444.857
443.7
442.195
440.465
438.58
436.584
434.507
432.371
430.197
428.007
425.825
423.683
421.621
419.686
417.932
416.425
415.234
414.436
414.123
414.4
415.384
417.188
419.925
423.746
428.876
435.593
444.116
454.533
466.756
480.519
495.435
511.011
526.585
541.23
553.595
561.691
562.657
552.557
526.239
477.563
403.843
330.881
368.971
373.042
374.436
374.208
373.071
371.356
369.289
367.015
364.619
362.149
359.639
357.109
354.575
352.053
349.563
347.13
344.786
342.574
340.547
338.763
337.282
336.168
335.502
335.381
335.915
337.184
339.235
342.166
346.224
351.805
359.199
368.491
379.505
391.805
404.857
418.122
431.012
442.756
452.226
457.734
456.926
446.868
424.285
386.05
330.097
264.389
298.534
302.6
303.712
303.056
301.343
298.977
296.25
293.347
290.366
287.363
284.369
281.402
278.471
275.586
272.759
270.006
267.354
264.84
262.515
260.434
258.648
257.202
256.159
255.622
255.714
256.476
257.826
259.735
262.504
266.816
273.129
281.563
291.807
303.125
314.75
326.118
336.81
346.362
353.998
358.381
357.545
349.214
330.982
300.559
256.587
203.732
228.44
232.254
233.328
232.315
229.889
226.666
223.085
219.386
215.68
212.021
208.437
204.935
201.516
198.182
194.931
191.77
188.719
185.814
183.109
180.668
178.53
176.706
175.233
174.246
173.956
174.362
175.074
175.735
176.715
179.422
184.703
192.809
203.199
214.478
225.388
235.348
244.252
252.2
258.941
263.482
264.016
258.794
246.13
224.366
193.03
155.7
158.285
161.901
163.432
161.83
158.186
153.642
148.857
144.1
139.456
134.956
130.612
126.419
122.367
118.451
114.659
110.98
107.444
104.086
100.982
98.2318
95.8531
93.7758
91.9721
90.6533
90.2706
90.8104
91.248
90.4351
88.7473
89.0682
92.9076
100.896
112.428
124.946
136.037
144.983
152.149
158.84
165.693
171.966
175.254
174.246
168.007
154.981
134.674
109.508
89.1626
93.4811
94.746
91.1385
85.5607
79.6613
74.0616
68.8183
63.8611
59.1602
54.7146
50.5038
46.5103
42.7365
39.1642
35.7638
32.5902
29.6607
27.0508
24.9079
23.2068
21.7542
20.3975
19.3704
19.4025
20.5968
21.3984
19.7368
15.974
13.9658
15.0383
20.2078
30.0802
41.5916
50.7192
56.0626
59.1557
63.0744
70.1467
79.9785
87.701
92.3028
93.9126
89.9491
79.355
64.4149
31.3995
34.8315
33.1466
28.2991
23.5774
19.6616
16.5683
13.9769
11.6852
9.65154
7.88127
6.35999
5.07137
3.981
3.05999
2.24287
1.533
0.917155
0.303711
-0.119011
-0.379366
-0.590232
-0.849457
-1.07381
-0.940914
-0.35075
0.104803
-0.553757
-2.06956
-3.01928
-3.43002
-3.28415
-2.32348
-1.46589
-1.67414
-5.13966
-12.8279
-17.5915
-16.934
-9.1507
-0.747977
8.21405
19.4554
26.1222
25.1543
20.1316
3.41672
2.36006
1.96285
0.724755
-0.205838
-0.838845
-1.24079
-1.52848
-1.75366
-1.92321
-2.03615
-2.09453
-2.09672
-2.04607
-2.0344
-2.03792
-2.03328
-2.03014
-2.03573
-2.04412
-2.05325
-2.06567
-2.08522
-2.10814
-2.12017
-2.11818
-2.12259
-2.17582
-2.26761
-2.35827
-2.42544
-2.47892
-2.51793
-3.13548
-4.235
-6.69313
-11.8771
-21.0507
-30.2146
-40.8172
-50.9694
-54.5096
-45.273
-34.477
-29.6159
-25.9284
-2.25804
-1.80674
-1.83429
-1.9737
-1.97181
-1.95162
-1.93609
-1.92648
-1.92232
-1.92101
-1.91979
-1.91566
-1.90374
-1.87888
-1.86303
-1.85754
-1.85998
-1.86751
-1.87753
-1.89036
-1.90589
-1.92417
-1.9455
-1.96934
-1.99409
-2.0192
-2.04652
-2.07947
-2.11598
-2.15113
-2.1782
-2.18373
-2.14917
-2.22227
-2.64096
-2.91538
-3.13775
-3.51185
-5.32825
-10.439
-18.1829
-28.6455
-41.1384
-50.2243
-58.1903
-60.7877
-2.08326
-2.06366
-2.02275
-1.99749
-1.96827
-1.94329
-1.92558
-1.91485
-1.91084
-1.9132
-1.92144
-1.93526
-1.95374
-1.97194
-1.97727
-1.98169
-1.98929
-1.99938
-2.01167
-2.02605
-2.04261
-2.06139
-2.08238
-2.10526
-2.1296
-2.15559
-2.18441
-2.21716
-2.25309
-2.28955
-2.32258
-2.34629
-2.35747
-2.40161
-2.51758
-2.60203
-2.63696
-2.65136
-2.88595
-3.52728
-4.16892
-4.51281
-8.46486
-14.5699
-22.05
-32.7907
-2.13801
-2.11006
-2.08931
-2.07094
-2.05483
-2.03989
-2.02838
-2.02165
-2.02005
-2.02339
-2.03108
-2.04228
-2.05567
-2.06867
-2.07753
-2.08578
-2.09513
-2.1063
-2.11938
-2.13448
-2.15167
-2.17097
-2.19237
-2.21565
-2.24057
-2.26739
-2.2971
-2.33062
-2.36756
-2.40638
-2.44565
-2.48504
-2.5277
-2.58916
-2.6794
-2.77248
-2.85454
-2.91954
-2.96584
-3.07395
-3.19357
-3.26755
-3.59921
-4.4702
-4.84354
-6.56466
-2.1851
-2.17345
-2.15893
-2.14428
-2.13176
-2.12078
-2.11258
-2.1082
-2.10793
-2.11161
-2.11872
-2.12843
-2.13965
-2.15104
-2.16157
-2.17217
-2.18369
-2.19665
-2.21129
-2.22778
-2.24619
-2.26658
-2.28896
-2.31326
-2.33945
-2.36776
-2.39878
-2.43305
-2.47051
-2.51079
-2.55397
-2.60118
-2.65564
-2.72475
-2.81205
-2.90637
-3.00156
-3.09748
-3.20105
-3.32825
-3.44827
-3.50128
-3.54532
-3.72627
-3.80771
-4.04071
-2.25625
-2.24459
-2.2317
-2.2188
-2.20785
-2.19896
-2.19277
-2.18989
-2.19054
-2.19457
-2.20161
-2.21106
-2.22213
-2.23402
-2.24621
-2.25894
-2.2726
-2.28755
-2.304
-2.32211
-2.34197
-2.36366
-2.38723
-2.41272
-2.44024
-2.47002
-2.50244
-2.5379
-2.57664
-2.61888
-2.66526
-2.71708
-2.77665
-2.84757
-2.93111
-3.0224
-3.11889
-3.22185
-3.33591
-3.46904
-3.59959
-3.70694
-3.81109
-3.95519
-4.05208
-4.1082
-2.33177
-2.31928
-2.30712
-2.29565
-2.2864
-2.27946
-2.27511
-2.27369
-2.27536
-2.28001
-2.28735
-2.29694
-2.30827
-2.3208
-2.33422
-2.34854
-2.36391
-2.38054
-2.39858
-2.41817
-2.43941
-2.46238
-2.48719
-2.51392
-2.54274
-2.57391
-2.60778
-2.64475
-2.6852
-2.72964
-2.77885
-2.83401
-2.89675
-2.9689
-3.05103
-3.14125
-3.23847
-3.34323
-3.45734
-3.58181
-3.70947
-3.8341
-3.96463
-4.11168
-4.24387
-4.36588
-2.40882
-2.39599
-2.38482
-2.37498
-2.36747
-2.36232
-2.35963
-2.35958
-2.36228
-2.36763
-2.37543
-2.38537
-2.39707
-2.41019
-2.42451
-2.43997
-2.45662
-2.47456
-2.49391
-2.51477
-2.53724
-2.56143
-2.58744
-2.6154
-2.6455
-2.67802
-2.71333
-2.75188
-2.79413
-2.84069
-2.89236
-2.95016
-3.0153
-3.08887
-3.17124
-3.26174
-3.35977
-3.46527
-3.57847
-3.69883
-3.82322
-3.9491
-4.0796
-4.21772
-4.35323
-4.48661
-2.4867
-2.47451
-2.46476
-2.45661
-2.4507
-2.4471
-2.44582
-2.44696
-2.45059
-2.45663
-2.46493
-2.47526
-2.48737
-2.50102
-2.51605
-2.53239
-2.55003
-2.56902
-2.58945
-2.61141
-2.63498
-2.66028
-2.68742
-2.71654
-2.74787
-2.78171
-2.81844
-2.85853
-2.90253
-2.95106
-3.0049
-3.06493
-3.13208
-3.20713
-3.29037
-3.38152
-3.48017
-3.58598
-3.69852
-3.81693
-3.93926
-4.06397
-4.19166
-4.32315
-4.45512
-4.58751
-2.56536
-2.55473
-2.54666
-2.54014
-2.53564
-2.53334
-2.53324
-2.5354
-2.53983
-2.5465
-2.55527
-2.566
-2.57851
-2.59263
-2.60824
-2.62528
-2.64371
-2.66356
-2.6849
-2.70779
-2.73233
-2.7586
-2.78675
-2.81696
-2.84944
-2.88452
-2.92261
-2.96419
-3.00985
-3.06021
-3.11602
-3.17805
-3.24706
-3.32362
-3.40795
-3.4999
-3.59905
-3.70487
-3.81665
-3.9334
-4.0537
-4.17642
-4.30142
-4.42872
-4.55726
-4.68724
-2.64498
-2.63647
-2.63007
-2.625
-2.62173
-2.62051
-2.62138
-2.62438
-2.6295
-2.63671
-2.64592
-2.65703
-2.66991
-2.68445
-2.70056
-2.71816
-2.73724
-2.7578
-2.77989
-2.80357
-2.82892
-2.85605
-2.88509
-2.91626
-2.9498
-2.98605
-3.02542
-3.06842
-3.11564
-3.16772
-3.22537
-3.28926
-3.36004
-3.43814
-3.5237
-3.61651
-3.7161
-3.82178
-3.93265
-4.04765
-4.16565
-4.28576
-4.40766
-4.5313
-4.65648
-4.78341
-2.72557
-2.71933
-2.71437
-2.71057
-2.70834
-2.70801
-2.70967
-2.71335
-2.71906
-2.72674
-2.73635
-2.74782
-2.76105
-2.77596
-2.79249
-2.81057
-2.83018
-2.85133
-2.87404
-2.89837
-2.92441
-2.95227
-2.98211
-3.01414
-3.04865
-3.08597
-3.12654
-3.17088
-3.21958
-3.27328
-3.33265
-3.39832
-3.47081
-3.55046
-3.63728
-3.73098
-3.83097
-3.93639
-4.04623
-4.15941
-4.27492
-4.39209
-4.51072
-4.63091
-4.75293
-4.87712
-2.80689
-2.80277
-2.79897
-2.7962
-2.79485
-2.79526
-2.79758
-2.80183
-2.80803
-2.81614
-2.82613
-2.83793
-2.85149
-2.86675
-2.88364
-2.90212
-2.92217
-2.94379
-2.96701
-2.99188
-3.01851
-3.047
-3.07754
-3.11035
-3.14574
-3.18406
-3.22576
-3.27136
-3.32146
-3.3767
-3.43771
-3.50507
-3.57922
-3.66038
-3.74846
-3.84302
-3.94333
-4.0484
-4.15711
-4.26838
-4.38134
-4.49555
-4.61104
-4.7282
-4.84763
-4.96984
-2.88854
-2.88621
-2.8833
-2.88138
-2.88078
-2.88182
-2.8847
-2.88946
-2.8961
-2.90461
-2.91494
-2.92707
-2.94094
-2.9565
-2.97371
-2.99253
-3.01294
-3.03494
-3.05858
-3.08391
-3.11103
-3.14008
-3.17124
-3.20476
-3.24096
-3.2802
-3.32295
-3.36974
-3.42117
-3.47786
-3.54044
-3.60942
-3.68518
-3.76781
-3.85709
-3.95244
-4.05298
-4.15759
-4.26509
-4.37443
-4.48489
-4.5963
-4.70903
-4.82379
-4.94149
-5.06277
-2.97007
-2.96913
-2.96691
-2.96571
-2.96574
-2.96736
-2.97075
-2.97597
-2.98303
-2.99192
-3.00259
-3.01501
-3.02916
-3.04499
-3.06247
-3.08157
-3.10227
-3.1246
-3.14859
-3.1743
-3.20186
-3.2314
-3.26314
-3.29731
-3.33425
-3.37435
-3.41807
-3.46598
-3.51866
-3.57674
-3.64081
-3.71134
-3.78863
-3.87265
-3.96305
-4.0591
-4.15978
-4.26385
-4.3701
-4.47755
-4.58568
-4.69462
-4.80513
-4.91828
-5.03526
-5.1568
-3.05099
-3.05107
-3.04941
-3.04885
-3.04947
-3.05161
-3.0555
-3.06117
-3.06863
-3.07787
-3.08885
-3.10155
-3.11594
-3.13199
-3.14969
-3.16902
-3.18998
-3.21259
-3.23689
-3.26295
-3.29091
-3.32091
-3.35317
-3.38795
-3.42558
-3.46648
-3.51113
-3.56009
-3.61395
-3.67335
-3.73882
-3.81082
-3.88953
-3.97484
-4.06625
-4.16289
-4.26361
-4.36708
-4.4721
-4.57779
-4.68388
-4.79087
-4.89988
-5.01237
-5.12976
-5.25279
-3.13081
-3.13164
-3.1305
-3.13052
-3.1317
-3.13437
-3.13873
-3.14483
-3.15267
-3.16224
-3.1735
-3.18645
-3.20105
-3.21729
-3.23518
-3.25471
-3.27589
-3.29875
-3.32334
-3.34973
-3.37807
-3.4085
-3.44126
-3.47661
-3.51491
-3.55657
-3.6021
-3.65206
-3.70705
-3.76768
-3.83449
-3.90786
-3.98789
-4.07436
-4.16665
-4.26376
-4.36441
-4.46725
-4.57111
-4.67527
-4.77976
-4.88543
-4.99384
-5.10676
-5.22578
-5.35155
-3.2092
-3.21057
-3.20993
-3.21052
-3.21225
-3.21543
-3.22026
-3.22676
-3.23496
-3.24483
-3.25636
-3.26952
-3.28432
-3.30074
-3.3188
-3.33851
-3.35989
-3.38298
-3.40784
-3.43455
-3.46324
-3.49409
-3.52733
-3.56323
-3.60217
-3.64457
-3.69094
-3.74186
-3.79793
-3.85974
-3.92781
-4.00243
-4.08367
-4.17117
-4.26421
-4.36167
-4.4622
-4.56443
-4.66728
-4.77024
-4.87366
-4.9788
-5.0876
-5.20211
-5.32401
-5.45373
-3.28592
-3.28771
-3.28759
-3.28873
-3.29099
-3.29469
-3.29996
-3.30685
-3.31538
-3.32553
-3.3373
-3.35067
-3.36565
-3.38225
-3.40047
-3.42035
-3.44193
-3.46523
-3.49034
-3.51735
-3.54639
-3.57763
-3.61133
-3.64776
-3.68732
-3.73043
-3.77762
-3.82946
-3.88656
-3.94949
-4.01872
-4.09451
-4.17681
-4.26521
-4.35888
-4.4566
-4.557
-4.65873
-4.76084
-4.86306
-4.96609
-5.07158
-5.18182
-5.29908
-5.425
-5.55971
-3.36091
-3.36301
-3.36343
-3.36511
-3.36791
-3.37209
-3.37779
-3.38506
-3.39389
-3.40431
-3.41631
-3.42988
-3.44505
-3.46181
-3.4802
-3.50025
-3.52201
-3.54552
-3.57087
-3.59815
-3.62751
-3.65914
-3.69327
-3.73021
-3.77036
-3.81415
-3.86212
-3.91485
-3.97292
-4.03689
-4.10718
-4.184
-4.26724
-4.35639
-4.45055
-4.54849
-4.6488
-4.75024
-4.852
-4.95409
-5.05754
-5.16436
-5.27713
-5.39825
-5.52919
-5.66969
-3.4342
-3.43651
-3.43749
-3.43971
-3.44303
-3.44769
-3.45379
-3.4614
-3.47053
-3.4812
-3.49341
-3.50718
-3.52252
-3.53946
-3.55801
-3.57823
-3.60017
-3.62387
-3.64944
-3.67698
-3.70665
-3.73862
-3.77317
-3.81061
-3.85132
-3.89577
-3.94448
-3.99804
-4.05701
-4.12192
-4.19314
-4.27084
-4.35484
-4.44458
-4.53913
-4.63724
-4.73757
-4.83899
-4.94091
-5.04359
-5.14838
-5.25757
-5.37394
-5.49988
-5.63665
-5.78351
-3.50582
-3.50825
-3.50982
-3.51255
-3.51638
-3.5215
-3.52799
-3.53593
-3.54533
-3.55622
-3.56864
-3.58259
-3.59811
-3.6152
-3.63392
-3.6543
-3.6764
-3.70029
-3.72607
-3.75385
-3.7838
-3.81612
-3.85106
-3.88897
-3.93023
-3.9753
-4.02471
-4.07903
-4.13881
-4.20454
-4.27656
-4.35497
-4.43955
-4.52972
-4.62453
-4.72281
-4.82331
-4.92507
-5.02771
-5.13178
-5.23884
-5.35139
-5.47229
-5.60385
-5.74697
-5.90045
-3.57585
-3.57829
-3.58043
-3.58368
-3.588
-3.59355
-3.60041
-3.60865
-3.6183
-3.62941
-3.64201
-3.65613
-3.6718
-3.68904
-3.70791
-3.72843
-3.75069
-3.77475
-3.80073
-3.82874
-3.85896
-3.8916
-3.92693
-3.96529
-4.00706
-4.05272
-4.10279
-4.1578
-4.21829
-4.28471
-4.35736
-4.4363
-4.52128
-4.61171
-4.70671
-4.80519
-4.90606
-5.00857
-5.11257
-5.2188
-5.32902
-5.44579
-5.57192
-5.70952
-5.85915
-6.01913
-3.6443
-3.64663
-3.64934
-3.65309
-3.65789
-3.66384
-3.67104
-3.67955
-3.68943
-3.70073
-3.7135
-3.72776
-3.74356
-3.76094
-3.77993
-3.80058
-3.82298
-3.8472
-3.87336
-3.90158
-3.93206
-3.96502
-4.00072
-4.03951
-4.08178
-4.12799
-4.17864
-4.23427
-4.29536
-4.36234
-4.43545
-4.51473
-4.59993
-4.69049
-4.78562
-4.88437
-4.98588
-5.08958
-5.19555
-5.3047
-5.41884
-5.54046
-5.67219
-5.81587
-5.9717
-6.13768
-3.71108
-3.71332
-3.71657
-3.7208
-3.72603
-3.73235
-3.73985
-3.74861
-3.7587
-3.77017
-3.78308
-3.79746
-3.81337
-3.83085
-3.84994
-3.87071
-3.89323
-3.91759
-3.94391
-3.97234
-4.00306
-4.03631
-4.07236
-4.11156
-4.15429
-4.201
-4.25218
-4.30832
-4.3699
-4.43727
-4.51067
-4.59011
-4.67536
-4.76594
-4.86118
-4.96032
-5.06272
-5.16806
-5.27659
-5.38929
-5.50792
-5.63476
-5.77212
-5.92153
-6.08285
-6.25394
-3.77618
-3.77846
-3.78214
-3.78681
-3.79242
-3.79906
-3.80683
-3.81581
-3.82608
-3.83769
-3.85072
-3.86521
-3.8812
-3.89876
-3.91793
-3.93878
-3.9614
-3.98588
-4.01234
-4.04095
-4.0719
-4.10542
-4.1418
-4.18136
-4.2245
-4.27166
-4.32328
-4.37984
-4.44176
-4.50938
-4.58289
-4.66231
-4.74745
-4.83794
-4.93327
-5.03291
-5.13645
-5.2438
-5.35535
-5.47207
-5.59552
-5.72765
-5.87037
-6.02485
-6.19074
-6.36587
-3.83964
-3.84206
-3.84609
-3.85113
-3.85707
-3.86399
-3.87199
-3.88116
-3.89158
-3.90332
-3.91644
-3.931
-3.94706
-3.96467
-3.9839
-4.00481
-4.0275
-4.05207
-4.07866
-4.10742
-4.13856
-4.17232
-4.20898
-4.24887
-4.29236
-4.33988
-4.39185
-4.4487
-4.51082
-4.57851
-4.65196
-4.73119
-4.81608
-4.90638
-5.00178
-5.10199
-5.20684
-5.31645
-5.43128
-5.55222
-5.68054
-5.81776
-5.96533
-6.12411
-6.29358
-6.47173
-3.90158
-3.90414
-3.90846
-3.91381
-3.92001
-3.92717
-3.93536
-3.94469
-3.95524
-3.96707
-3.98027
-3.99488
-4.01098
-4.02863
-4.04788
-4.06883
-4.09157
-4.1162
-4.14287
-4.17176
-4.20305
-4.237
-4.27388
-4.31403
-4.3578
-4.40558
-4.45779
-4.5148
-4.57697
-4.64457
-4.71778
-4.79664
-4.88114
-4.97116
-5.06659
-5.16738
-5.2736
-5.38552
-5.50365
-5.6287
-5.76163
-5.90349
-6.05527
-6.21757
-6.38985
-6.57025
-3.96207
-3.96475
-3.9693
-3.9749
-3.98133
-3.98867
-3.99702
-4.00648
-4.01712
-4.02903
-4.04228
-4.05693
-4.07304
-4.09069
-4.10995
-4.13091
-4.15366
-4.17832
-4.20504
-4.23399
-4.26539
-4.29947
-4.33651
-4.37684
-4.42079
-4.46873
-4.52104
-4.57807
-4.64013
-4.70747
-4.78026
-4.85861
-4.94258
-5.03221
-5.12759
-5.2289
-5.33641
-5.4505
-5.57165
-5.70043
-5.83741
-5.98324
-6.13854
-6.30376
-6.47836
-6.66065
-4.02119
-4.02396
-4.0287
-4.03448
-4.04109
-4.04858
-4.05706
-4.06661
-4.07733
-4.08929
-4.10256
-4.11721
-4.13332
-4.15095
-4.17019
-4.19111
-4.21383
-4.23848
-4.2652
-4.29417
-4.32561
-4.35975
-4.39687
-4.43728
-4.48131
-4.52929
-4.58156
-4.63845
-4.70023
-4.76714
-4.83936
-4.91704
-5.00035
-5.08948
-5.1847
-5.28638
-5.39495
-5.51085
-5.63453
-5.76634
-5.90659
-6.05561
-6.2138
-6.38154
-6.55836
-6.74258
-4.07902
-4.08185
-4.08672
-4.09266
-4.09939
-4.10699
-4.11556
-4.12518
-4.13594
-4.14793
-4.1612
-4.17583
-4.1919
-4.20948
-4.22865
-4.24951
-4.27216
-4.29674
-4.3234
-4.35233
-4.38373
-4.41785
-4.45496
-4.49536
-4.53934
-4.58722
-4.63932
-4.69591
-4.75725
-4.82356
-4.89504
-4.97191
-5.05442
-5.14291
-5.23782
-5.33964
-5.44892
-5.56611
-5.6916
-5.82558
-5.96816
-6.11953
-6.28004
-6.45016
-6.6294
-6.81597
-4.13563
-4.1385
-4.14346
-4.1495
-4.15632
-4.164
-4.17263
-4.18229
-4.19307
-4.20504
-4.21828
-4.23287
-4.24887
-4.26636
-4.28544
-4.30618
-4.32872
-4.35317
-4.37971
-4.40851
-4.4398
-4.4738
-4.51079
-4.55104
-4.59484
-4.64249
-4.69425
-4.75039
-4.81112
-4.87667
-4.94727
-5.02317
-5.10475
-5.19245
-5.28683
-5.38849
-5.49802
-5.61587
-5.74231
-5.87747
-6.0214
-6.17429
-6.33666
-6.50913
-6.69122
-6.88084
-4.19108
-4.19396
-4.19898
-4.20508
-4.21196
-4.21968
-4.22834
-4.23801
-4.24877
-4.26071
-4.2739
-4.2884
-4.30429
-4.32166
-4.34059
-4.36118
-4.38354
-4.40781
-4.43416
-4.46276
-4.49384
-4.52762
-4.56436
-4.60434
-4.64781
-4.69506
-4.74632
-4.80183
-4.86179
-4.92643
-4.99598
-5.07079
-5.15127
-5.23799
-5.3316
-5.43274
-5.542
-5.65977
-5.78628
-5.9216
-6.06587
-6.21949
-6.38328
-6.55809
-6.74342
-6.93687
-4.24542
-4.24829
-4.25333
-4.25947
-4.26638
-4.27411
-4.28276
-4.29241
-4.30313
-4.31501
-4.3281
-4.34248
-4.35824
-4.37544
-4.39418
-4.41456
-4.43669
-4.46071
-4.48679
-4.51511
-4.54587
-4.57932
-4.61569
-4.65525
-4.69824
-4.74492
-4.79551
-4.85021
-4.90922
-4.97276
-5.04111
-5.11464
-5.19386
-5.27939
-5.37194
-5.47216
-5.58057
-5.69753
-5.82319
-5.95769
-6.10134
-6.25491
-6.41959
-6.59654
-6.78521
-6.98299
-4.2987
-4.30155
-4.30658
-4.31271
-4.31962
-4.32734
-4.33596
-4.34556
-4.35621
-4.36798
-4.38095
-4.39518
-4.41075
-4.42775
-4.44625
-4.46636
-4.4882
-4.5119
-4.53763
-4.56557
-4.59592
-4.62891
-4.66479
-4.70379
-4.74615
-4.79209
-4.84183
-4.89554
-4.95342
-5.01568
-5.08263
-5.15468
-5.23242
-5.31651
-5.40765
-5.50649
-5.61347
-5.72887
-5.85282
-5.98556
-6.12768
-6.28035
-6.44521
-6.62372
-6.81524
-7.01718
-4.35094
-4.35376
-4.35876
-4.36486
-4.37174
-4.37942
-4.38798
-4.3975
-4.40804
-4.41968
-4.43249
-4.44653
-4.46188
-4.47862
-4.49683
-4.51662
-4.53811
-4.56142
-4.58672
-4.61418
-4.64402
-4.67644
-4.71168
-4.74997
-4.79154
-4.83659
-4.88529
-4.93783
-4.99438
-5.05518
-5.12053
-5.19091
-5.26692
-5.34926
-5.43862
-5.5356
-5.64055
-5.75365
-5.87506
-6.00515
-6.14483
-6.29566
-6.4597
-6.63866
-6.83185
-7.03694
-4.40219
-4.40497
-4.4099
-4.41596
-4.42277
-4.43038
-4.43886
-4.44827
-4.45868
-4.47016
-4.48277
-4.49658
-4.51166
-4.5281
-4.54597
-4.56539
-4.58645
-4.6093
-4.63409
-4.66099
-4.6902
-4.72193
-4.75641
-4.79385
-4.83446
-4.87844
-4.92594
-4.97713
-5.03217
-5.0913
-5.15486
-5.22333
-5.29734
-5.37761
-5.46479
-5.5594
-5.66172
-5.77185
-5.88995
-6.01656
-6.15288
-6.30081
-6.46273
-6.64051
-6.83344
-7.03983
-4.45247
-4.4552
-4.46005
-4.46603
-4.47276
-4.48027
-4.48864
-4.49791
-4.50816
-4.51944
-4.53182
-4.54536
-4.56014
-4.57623
-4.59372
-4.61269
-4.63327
-4.65558
-4.67978
-4.70602
-4.7345
-4.76543
-4.79901
-4.83546
-4.87496
-4.9177
-4.96383
-5.01349
-5.06685
-5.12412
-5.18567
-5.25199