/*--------------------------------*- C++ -*----------------------------------*\
  =========                 |
  \\      /  F ield         | OpenFOAM: The Open Source CFD Toolbox
   \\    /   O peration     | Website:  https://openfoam.org
    \\  /    A nd           | Version:  7
     \\/     M anipulation  |
\*---------------------------------------------------------------------------*/
FoamFile
{
    version     2.0;
    format      ascii;
    class       volScalarField;
    location    "0.35";
    object      p_rgh;
}
// * * * * * * * * * * * * * * * * * * * * * * * * * * * * * * * * * * * * * //

dimensions      [1 -1 -2 0 0 0 0];

internalField   nonuniform List<scalar> 
9072
(
1113.58
1113.49
1117.57
1123.67
1130.05
1135.8
1140.67
1144.65
1147.88
1150.5
1152.67
1154.48
1156.04
1157.43
1158.68
1159.87
1161.03
1162.19
1163.41
1164.72
1166.18
1167.86
1169.84
1172.21
1175.11
1178.68
1183.12
1188.66
1195.58
1204.23
1215.07
1228.75
1245.68
1266.48
1291.73
1321.97
1357.36
1397.19
1439.31
1480.04
1514.59
1539.42
1547.09
1549.57
1568.54
1601.32
1113.34
1112.66
1115.93
1121.26
1127.03
1132.4
1137.06
1140.97
1144.18
1146.81
1148.99
1150.81
1152.36
1153.72
1154.95
1156.09
1157.2
1158.31
1159.49
1160.76
1162.21
1163.89
1165.89
1168.33
1171.32
1175.05
1179.69
1185.5
1192.77
1201.85
1213.17
1227.19
1244.77
1266.31
1292.5
1323.94
1360.83
1402.58
1447.11
1490.41
1526.64
1552.28
1554.11
1546.64
1554.74
1592.52
1112.51
1112.1
1114.85
1119.24
1124.18
1128.94
1133.19
1136.82
1139.85
1142.35
1144.42
1146.13
1147.58
1148.83
1149.94
1150.96
1151.95
1152.95
1154.02
1155.22
1156.61
1158.28
1160.3
1162.81
1165.94
1169.87
1174.79
1180.97
1188.7
1198.35
1210.36
1225.19
1243.58
1266.08
1293.32
1325.82
1363.73
1406.46
1451.98
1496.41
1533.44
1559.72
1558.81
1548.16
1546.12
1587.52
1111.46
1111.64
1114.09
1117.78
1121.99
1126.13
1129.88
1133.13
1135.86
1138.12
1139.99
1141.51
1142.78
1143.85
1144.78
1145.62
1146.44
1147.29
1148.23
1149.31
1150.62
1152.23
1154.26
1156.82
1160.06
1164.16
1169.34
1175.85
1184.02
1194.2
1206.83
1222.38
1241.48
1264.74
1292.73
1325.87
1364.21
1407.07
1452.48
1496.8
1534.07
1560.22
1563.9
1552.88
1545.96
1589.08
1110.35
1111.21
1113.5
1116.69
1120.31
1123.89
1127.15
1130
1132.39
1134.37
1135.98
1137.28
1138.32
1139.18
1139.9
1140.54
1141.17
1141.84
1142.62
1143.56
1144.76
1146.3
1148.29
1150.86
1154.16
1158.39
1163.76
1170.54
1179.04
1189.64
1202.75
1218.84
1238.48
1262.24
1290.65
1324.02
1362.3
1404.74
1449.48
1493.22
1530.75
1557.78
1570.83
1567.01
1557.91
1598.75
1109.11
1110.61
1112.85
1115.7
1118.85
1121.93
1124.75
1127.2
1129.25
1130.93
1132.27
1133.31
1134.12
1134.75
1135.25
1135.69
1136.12
1136.6
1137.2
1137.99
1139.06
1140.5
1142.43
1144.98
1148.31
1152.61
1158.1
1165.07
1173.82
1184.71
1198.16
1214.62
1234.6
1258.64
1287.19
1320.47
1358.35
1400.05
1443.84
1486.84
1524.67
1553.3
1569.5
1572.47
1572.16
1617.06
1107.67
1109.74
1112.02
1114.63
1117.4
1120.06
1122.47
1124.54
1126.26
1127.63
1128.69
1129.49
1130.05
1130.45
1130.74
1130.96
1131.19
1131.48
1131.9
1132.54
1133.47
1134.8
1136.64
1139.14
1142.45
1146.78
1152.35
1159.42
1168.32
1179.4
1193.06
1209.73
1229.88
1253.99
1282.44
1315.38
1352.6
1393.33
1436.01
1478.16
1516.19
1546.52
1566.1
1575.72
1587.31
1640.38
1106.03
1108.57
1110.94
1113.4
1115.86
1118.15
1120.18
1121.9
1123.3
1124.38
1125.17
1125.7
1126.03
1126.21
1126.27
1126.29
1126.31
1126.42
1126.66
1127.13
1127.92
1129.12
1130.87
1133.29
1136.56
1140.87
1146.46
1153.58
1162.55
1173.72
1187.47
1204.21
1224.36
1248.35
1276.49
1308.87
1345.23
1384.83
1426.28
1467.47
1505.5
1537.39
1560.6
1577.19
1601.76
1664.83
1104.21
1107.13
1109.6
1111.94
1114.14
1116.11
1117.8
1119.19
1120.28
1121.08
1121.6
1121.89
1121.99
1121.94
1121.79
1121.61
1121.44
1121.35
1121.43
1121.73
1122.37
1123.44
1125.07
1127.4
1130.6
1134.86
1140.41
1147.52
1156.49
1167.66
1181.4
1198.07
1218.08
1241.78
1269.43
1301.07
1336.4
1374.73
1414.82
1454.92
1492.7
1525.78
1552.45
1575.74
1613.23
1688.22
1102.21
1105.43
1108
1110.23
1112.2
1113.87
1115.26
1116.35
1117.14
1117.66
1117.94
1117.99
1117.86
1117.6
1117.25
1116.87
1116.51
1116.25
1116.15
1116.29
1116.78
1117.71
1119.21
1121.43
1124.53
1128.71
1134.19
1141.23
1150.14
1161.22
1174.84
1191.35
1211.08
1234.35
1261.37
1292.11
1326.28
1363.21
1401.81
1440.6
1477.75
1511.46
1540.92
1569.96
1619.29
1705.34
1100.03
1103.49
1106.14
1108.26
1110.01
1111.41
1112.51
1113.31
1113.83
1114.1
1114.13
1113.95
1113.61
1113.14
1112.59
1112.02
1111.49
1111.05
1110.78
1110.77
1111.1
1111.89
1113.26
1115.35
1118.33
1122.39
1127.76
1134.69
1143.47
1154.41
1167.83
1184.07
1203.41
1226.14
1252.4
1282.13
1315.01
1350.41
1387.35
1424.58
1460.63
1494.16
1525.27
1558.38
1617.96
1714.01
1097.66
1101.33
1104.01
1106.02
1107.56
1108.7
1109.53
1110.06
1110.32
1110.34
1110.14
1109.75
1109.2
1108.53
1107.8
1107.05
1106.34
1105.74
1105.31
1105.14
1105.32
1105.96
1107.18
1109.13
1111.97
1115.9
1121.12
1127.9
1136.49
1147.22
1160.38
1176.26
1195.14
1217.22
1242.62
1271.23
1302.72
1336.47
1371.58
1406.92
1441.28
1473.63
1504.82
1539.41
1606.95
1709.95
1095.12
1098.95
1101.64
1103.52
1104.84
1105.74
1106.3
1106.58
1106.59
1106.38
1105.96
1105.35
1104.61
1103.76
1102.85
1101.92
1101.05
1100.28
1099.69
1099.36
1099.39
1099.88
1100.95
1102.75
1105.44
1109.2
1114.25
1120.83
1129.2
1139.66
1152.49
1167.97
1186.3
1207.67
1232.13
1259.56
1289.57
1321.55
1354.63
1387.75
1419.76
1449.74
1479
1511.41
1583.55
1686.66
1092.42
1096.39
1099.04
1100.76
1101.87
1102.52
1102.83
1102.85
1102.63
1102.19
1101.56
1100.76
1099.82
1098.79
1097.7
1096.61
1095.57
1094.64
1093.89
1093.41
1093.28
1093.61
1094.53
1096.16
1098.68
1102.25
1107.1
1113.45
1121.57
1131.73
1144.19
1159.21
1176.95
1197.56
1221.05
1247.23
1275.7
1305.83
1336.72
1367.26
1396.26
1422.58
1447.43
1472.86
1544.89
1633.66
1089.55
1093.64
1096.22
1097.76
1098.65
1099.05
1099.11
1098.89
1098.44
1097.78
1096.94
1095.95
1094.83
1093.62
1092.36
1091.1
1089.9
1088.81
1087.9
1087.26
1086.97
1087.14
1087.89
1089.35
1091.68
1095.06
1099.68
1105.78
1113.61
1123.42
1135.48
1150.01
1167.14
1186.96
1209.45
1234.37
1261.28
1289.49
1318.04
1345.7
1371.03
1392.36
1409.89
1422.46
1486.3
1531.47
1086.55
1090.69
1093.18
1094.54
1095.2
1095.37
1095.19
1094.74
1094.07
1093.2
1092.17
1090.99
1089.69
1088.32
1086.9
1085.49
1084.13
1082.89
1081.84
1081.05
1080.6
1080.62
1081.2
1082.48
1084.62
1087.78
1092.16
1097.98
1105.48
1114.92
1126.53
1140.52
1156.99
1175.97
1197.4
1221
1246.28
1272.47
1298.52
1322.98
1343.97
1358.91
1365.74
1359.31
1391.53
1352.72
7.20573
7.20126
7.19662
7.19252
7.19008
7.18993
7.19181
7.19536
7.19979
7.20448
7.2087
7.21192
7.21369
7.2137
7.21174
7.20771
7.20162
7.19351
7.18355
7.17196
7.15903
7.14509
7.13048
7.11555
7.1006
7.08591
7.07172
7.05824
7.04565
7.03411
7.02376
7.01472
7.00709
7.00096
6.99638
6.99336
6.99169
6.99124
7.20631
7.20274
7.19862
7.19423
7.1912
7.1903
7.19149
7.19435
7.1982
7.2024
7.20624
7.20918
7.2108
7.21076
7.20885
7.20496
7.19907
7.19123
7.18157
7.17029
7.15768
7.14405
7.12973
7.11505
7.10033
7.08583
7.0718
7.05844
7.04594
7.03448
7.02417
7.01515
7.00752
7.00135
6.9967
6.99358
6.99176
6.9913
7.20706
7.20353
7.19953
7.19509
7.19181
7.19044
7.19108
7.19341
7.19671
7.20043
7.20388
7.20653
7.20797
7.20785
7.20598
7.20221
7.19654
7.18897
7.17962
7.16869
7.15641
7.1431
7.12906
7.11463
7.1001
7.08575
7.07182
7.05853
7.04607
7.03462
7.02432
7.01529
7.00764
7.00144
6.99673
6.99352
6.9916
6.99127
7.20793
7.20361
7.19934
7.19488
7.19157
7.18999
7.19031
7.19229
7.19521
7.19856
7.20171
7.20412
7.20541
7.20524
7.20338
7.19972
7.19422
7.18689
7.17783
7.1672
7.15524
7.14223
7.12845
7.11423
7.09985
7.08559
7.07169
7.05839
7.0459
7.0344
7.02406
7.01501
7.00734
7.00112
6.99637
6.99312
6.99115
6.99095
7.20874
7.20307
7.19819
7.19368
7.19051
7.18892
7.18917
7.19099
7.1937
7.19684
7.1998
7.20206
7.20326
7.20305
7.20121
7.19762
7.19226
7.18511
7.17629
7.16592
7.15422
7.14146
7.1279
7.11383
7.09955
7.08532
7.07139
7.05801
7.04541
7.03381
7.02339
7.01428
7.0066
7.00038
6.99564
6.99237
6.99043
6.99024
7.20915
7.20185
7.19613
7.19158
7.18869
7.1873
7.18769
7.18955
7.19223
7.19528
7.19817
7.20037
7.20153
7.20132
7.1995
7.19597
7.1907
7.1837
7.17504
7.16487
7.15337
7.14078
7.12736
7.11339
7.09914
7.08489
7.07088
7.05737
7.04463
7.03288
7.02234
7.01316
7.00546
6.99927
6.99457
6.99134
6.98951
6.98933
7.20887
7.19976
7.19306
7.1886
7.18613
7.18518
7.1859
7.18799
7.1908
7.19391
7.19682
7.19904
7.20022
7.20004
7.19825
7.19478
7.18958
7.18267
7.17412
7.16407
7.15267
7.14017
7.12681
7.11284
7.09857
7.08425
7.07013
7.05648
7.04357
7.03165
7.02097
7.0117
7.00397
6.99781
6.99318
6.99003
6.98834
6.98828
7.20761
7.19657
7.18884
7.18473
7.18285
7.1826
7.18383
7.18633
7.18943
7.19271
7.19577
7.19807
7.19932
7.1992
7.19746
7.19403
7.18888
7.18201
7.17352
7.16349
7.15211
7.1396
7.12619
7.11216
7.0978
7.08337
7.06913
7.05533
7.04225
7.03016
7.01932
7.00994
7.00216
6.99603
6.99148
6.98844
6.98691
6.98696
7.20496
7.19199
7.18325
7.17991
7.17886
7.17958
7.18153
7.1846
7.18813
7.19172
7.195
7.19747
7.19883
7.19879
7.19709
7.19369
7.18855
7.18168
7.17318
7.16312
7.15167
7.13906
7.12552
7.11132
7.0968
7.08222
7.06784
7.0539
7.04067
7.02844
7.01745
7.00795
7.00009
6.99396
6.98948
6.98655
6.98517
6.98535
7.20034
7.18566
7.17602
7.1741
7.17418
7.17617
7.17904
7.18284
7.18694
7.19092
7.19453
7.19723
7.19875
7.1988
7.19713
7.19374
7.18856
7.18164
7.17306
7.1629
7.15132
7.13853
7.12477
7.11035
7.09559
7.08081
7.06626
7.05218
7.03884
7.02649
7.01538
7.00575
6.9978
6.99163
6.98718
6.98434
6.98311
6.98341
7.19275
7.17708
7.16683
7.16722
7.16886
7.17244
7.17642
7.18109
7.18586
7.19033
7.19433
7.19732
7.19904
7.19921
7.19757
7.19415
7.18889
7.18185
7.17313
7.16279
7.15101
7.13799
7.12398
7.10926
7.09421
7.07917
7.06441
7.05018
7.03674
7.02431
7.0131
7.00336
6.99529
6.98905
6.98459
6.98181
6.98071
6.98113
7.18057
7.16559
7.15539
7.15927
7.16299
7.16848
7.17377
7.17941
7.18492
7.18995
7.19438
7.19771
7.19967
7.19998
7.19838
7.19492
7.18953
7.18229
7.17335
7.16276
7.15071
7.13743
7.12312
7.10808
7.0927
7.07735
7.06234
7.04792
7.03436
7.02187
7.0106
7.00078
6.99259
6.98624
6.98171
6.97894
6.97794
6.9785
7.16093
7.1505
7.14164
7.15037
7.15677
7.16447
7.17121
7.17789
7.18417
7.18979
7.19467
7.19837
7.20059
7.20107
7.19953
7.19603
7.19049
7.18301
7.17376
7.16283
7.15044
7.13681
7.12218
7.10681
7.0911
7.07541
7.06009
7.04544
7.03172
7.01915
7.00785
6.99797
6.98968
6.98318
6.97853
6.97573
6.97481
6.97548
7.12932
7.13128
7.12605
7.14093
7.15056
7.16067
7.16894
7.17668
7.18372
7.18992
7.19523
7.19931
7.20179
7.20243
7.20099
7.19745
7.19177
7.18404
7.17444
7.16309
7.15025
7.1362
7.12117
7.10545
7.0894
7.07338
7.05773
7.04278
7.02884
7.01615
7.0048
6.99489
6.98651
6.97986
6.97505
6.97215
6.97128
6.97208
7.07549
7.10504
7.10874
7.13124
7.14471
7.15734
7.16712
7.17588
7.18366
7.1904
7.19613
7.20057
7.20329
7.20407
7.20271
7.19914
7.19333
7.18536
7.1754
7.1636
7.15024
7.13567
7.12015
7.104
7.08759
7.07124
7.05528
7.04001
7.02578
7.01288
7.00143
6.99148
6.98303
6.97624
6.97124
6.96821
6.96737
6.96828
6.9935
7.05574
7.08678
7.12022
7.13898
7.15431
7.16547
7.17518
7.18366
7.19094
7.19714
7.20198
7.20501
7.20595
7.20468
7.20109
7.19515
7.18694
7.17663
7.16438
7.15049
7.13533
7.11925
7.10259
7.08575
7.06904
7.05275
7.03717
7.02261
7.00943
6.99778
6.9877
6.97916
6.97222
6.96703
6.96388
6.96306
6.96408
1081.65
1085.76
1088.12
1089.2
1089.53
1089.36
1088.82
1088.03
1087.03
1085.86
1084.54
1083.1
1081.56
1079.96
1078.32
1076.7
1075.14
1073.7
1072.45
1071.45
1070.8
1070.59
1070.93
1071.95
1073.79
1076.61
1080.59
1085.94
1092.87
1101.65
1112.47
1125.5
1140.81
1158.34
1177.96
1199.3
1221.8
1244.6
1266.44
1285.5
1299.02
1302.66
1289.8
1247.99
1163.31
854.327
1074.41
1078.51
1080.61
1081.28
1081.15
1080.5
1079.5
1078.25
1076.82
1075.25
1073.56
1071.78
1069.94
1068.05
1066.15
1064.28
1062.47
1060.79
1059.3
1058.05
1057.14
1056.64
1056.67
1057.33
1058.75
1061.08
1064.46
1069.09
1075.16
1082.94
1092.62
1104.3
1117.99
1133.54
1150.67
1168.96
1187.76
1206.11
1222.6
1235.14
1240.51
1233.79
1207.01
1146.08
1035.08
882.111
1066.79
1070.86
1072.61
1072.84
1072.22
1071.06
1069.56
1067.83
1065.94
1063.95
1061.87
1059.73
1057.56
1055.37
1053.19
1051.05
1048.98
1047.05
1045.3
1043.79
1042.6
1041.8
1041.49
1041.76
1042.75
1044.55
1047.29
1051.11
1056.24
1062.96
1071.48
1081.9
1094.12
1107.88
1122.8
1138.37
1153.95
1168.59
1180.96
1189.05
1190.02
1179.92
1153.6
1104.93
1031.21
958.111
1058.93
1063
1064.4
1064.17
1063.03
1061.32
1059.25
1056.98
1054.58
1052.11
1049.6
1047.07
1044.53
1042.01
1039.52
1037.09
1034.75
1032.53
1030.51
1028.72
1027.24
1026.13
1025.46
1025.34
1025.87
1027.14
1029.2
1032.13
1036.18
1041.77
1049.16
1058.45
1069.47
1081.77
1094.82
1108.08
1120.97
1132.72
1142.19
1147.69
1146.89
1136.83
1114.25
1076.01
1020.06
954.347
1051.09
1055.16
1056.27
1055.61
1053.9
1051.53
1048.81
1045.9
1042.92
1039.92
1036.93
1033.96
1031.03
1028.14
1025.32
1022.56
1019.91
1017.4
1015.07
1012.99
1011.21
1009.76
1008.72
1008.18
1008.27
1009.03
1010.38
1012.29
1015.06
1019.37
1025.69
1034.12
1044.36
1055.68
1067.31
1078.68
1089.37
1098.92
1106.56
1110.94
1110.1
1101.77
1083.54
1053.12
1009.14
956.29
1043.59
1047.41
1048.48
1047.47
1045.04
1041.82
1038.24
1034.54
1030.83
1027.18
1023.59
1020.09
1016.67
1013.34
1010.08
1006.92
1003.87
1000.97
998.262
995.821
993.684
991.859
990.386
989.399
989.109
989.515
990.227
990.888
991.869
994.576
999.858
1007.96
1018.35
1029.63
1040.54
1050.5
1059.41
1067.36
1074.1
1078.64
1079.17
1073.95
1061.28
1039.52
1008.18
970.855
1036.03
1039.63
1041.17
1039.57
1035.92
1031.38
1026.59
1021.83
1017.19
1012.69
1008.34
1004.15
1000.1
996.18
992.387
988.708
985.17
981.81
978.703
975.951
973.569
971.489
969.682
968.359
967.976
968.521
968.965
968.154
966.462
966.787
970.636
978.64
990.18
1002.7
1013.79
1022.73
1029.9
1036.59
1043.45
1049.72
1053.01
1052
1045.76
1032.73
1012.43
987.26
1029.38
1033.44
1034.73
1031.15
1025.56
1019.64
1014.02
1008.76
1003.78
999.051
994.584
990.351
986.326
982.293
978.361
974.326
969.891
965.041
959.696
954.026
948.268
941.716
933.291
923.18
917.041
919.825
921.913
911.405
876.919
869.979
884.044
923.405
964.988
981.901
991.059
996.411
999.505
1003.42
1010.5
1020.33
1028.05
1032.65
1034.26
1030.3
1019.7
1004.76
945.385
852.384
847.654
835.485
804.36
771.807
745.669
723.013
701.75
681.349
662.014
643.098
623.87
604.532
580.843
554.561
526.07
495.259
463.16
433.204
405.636
376.986
344.438
310.332
292.369
300.478
306.162
277.616
202.293
188.499
211.254
305.938
516.437
743.374
876.98
936.781
970.1
985.353
986.012
993.796
1002.2
1011.16
1022.4
1029.07
1028.1
1023.08
211.582
121.341
114.187
104.543
82.8192
63.5836
50.2727
39.967
31.0644
23.2123
16.3882
10.1563
4.26705
-0.953418
-0.968857
-0.972373
-0.967737
-0.9646
-0.970189
-0.978579
-0.98771
-1.00012
-1.01967
-1.0426
-1.05463
-1.05264
-1.05704
-1.11027
-1.20206
-1.29273
-1.3599
-1.41338
-1.45239
37.7885
138.391
246.104
339.094
454.339
671.948
969.508
1014.57
1011.03
1020.27
1031.07
1035.93
1039.62
-1.1299
-0.678595
-0.706147
-0.845559
-0.843668
-0.823475
-0.807952
-0.798339
-0.794186
-0.792882
-0.791673
-0.787559
-0.775647
-0.750778
-0.734922
-0.729428
-0.731858
-0.739379
-0.749393
-0.76222
-0.777756
-0.796034
-0.817364
-0.841203
-0.865952
-0.891061
-0.918381
-0.951325
-0.987843
-1.02299
-1.05005
-1.05559
-1.02103
-1.09413
-1.51282
-1.78724
-2.00961
-1.89518
10.3728
74.2268
197.223
441.178
890.182
1077.91
1069.95
1067.35
-0.892518
-0.872917
-0.832016
-0.806756
-0.777533
-0.752554
-0.734839
-0.72412
-0.720114
-0.722481
-0.730752
-0.744592
-0.763074
-0.781275
-0.786587
-0.790999
-0.798579
-0.808659
-0.820945
-0.835321
-0.851876
-0.870652
-0.891641
-0.914524
-0.93886
-0.964854
-0.993676
-1.02642
-1.06235
-1.09881
-1.13184
-1.15555
-1.16673
-1.21087
-1.32684
-1.41129
-1.44622
-1.46062
-1.69522
-2.33394
-2.96704
-2.47158
57.3564
201.803
401.928
730.197
-0.884674
-0.856726
-0.835975
-0.817604
-0.801493
-0.786556
-0.775046
-0.768317
-0.766722
-0.770072
-0.777788
-0.789001
-0.802401
-0.815399
-0.824247
-0.83249
-0.841824
-0.852983
-0.866062
-0.88116
-0.89834
-0.91764
-0.939041
-0.962321
-0.987233
-1.01405
-1.04376
-1.07729
-1.11423
-1.15304
-1.19232
-1.23171
-1.27435
-1.33581
-1.42605
-1.51914
-1.6012
-1.66621
-1.71251
-1.82088
-1.94064
-2.01377
-2.331
-3.17432
-3.48515
25.1972
-0.869162
-0.857522
-0.842997
-0.828349
-0.815824
-0.804846
-0.796652
-0.792267
-0.792001
-0.795685
-0.802802
-0.812534
-0.82376
-0.835146
-0.845675
-0.856263
-0.867776
-0.880731
-0.895373
-0.911853
-0.930263
-0.950653
-0.973031
-0.997332
-1.02352
-1.05183
-1.08285
-1.11711
-1.15458
-1.19486
-1.23804
-1.28524
-1.33967
-1.40876
-1.49606
-1.5904
-1.68562
-1.78154
-1.88512
-2.01231
-2.13233
-2.18535
-2.23049
-2.41121
-2.49152
-2.71953
-0.877723
-0.866057
-0.853167
-0.840266
-0.829322
-0.820428
-0.814236
-0.811359
-0.812005
-0.816045
-0.82309
-0.832536
-0.843613
-0.855502
-0.867694
-0.88042
-0.894081
-0.909032
-0.92548
-0.943583
-0.963442
-0.985129
-1.0087
-1.0342
-1.06171
-1.09149
-1.12391
-1.15937
-1.19811
-1.24035
-1.28673
-1.33851
-1.39806
-1.46898
-1.55253
-1.64382
-1.74032
-1.84332
-1.95738
-2.09051
-2.22106
-2.32841
-2.43256
-2.57666
-2.67352
-2.72959
-0.890645
-0.878154
-0.865994
-0.854523
-0.845271
-0.838333
-0.833978
-0.832565
-0.834232
-0.83888
-0.84622
-0.855815
-0.867141
-0.879679
-0.893098
-0.907413
-0.92279
-0.939419
-0.957459
-0.977044
-0.998281
-1.02126
-1.04606
-1.0728
-1.10162
-1.13279
-1.16665
-1.20362
-1.24407
-1.28851
-1.33772
-1.39286
-1.45556
-1.52772
-1.60984
-1.70008
-1.79734
-1.90211
-2.01621
-2.14068
-2.26835
-2.39297
-2.5235
-2.67055
-2.80274
-2.92475
-0.9051
-0.892269
-0.881098
-0.871256
-0.863744
-0.8586
-0.855902
-0.855856
-0.858551
-0.863908
-0.87171
-0.881643
-0.893344
-0.90647
-0.92079
-0.93625
-0.952898
-0.970839
-0.990184
-1.01104
-1.03352
-1.05771
-1.08372
-1.11167
-1.14177
-1.1743
-1.20961
-1.24815
-1.29041
-1.33697
-1.38864
-1.44644
-1.51156
-1.58512
-1.66751
-1.75802
-1.85604
-1.96155
-2.07475
-2.19511
-2.3195
-2.44537
-2.57588
-2.714
-2.84951
-2.98289
-0.920379
-0.908191
-0.898435
-0.890289
-0.884378
-0.880776
-0.879493
-0.88064
-0.884266
-0.890308
-0.898605
-0.908935
-0.921045
-0.934702
-0.949733
-0.966067
-0.983705
-1.0027
-1.02313
-1.04509
-1.06866
-1.09396
-1.1211
-1.15022
-1.18155
-1.21539
-1.25212
-1.29221
-1.33621
-1.38474
-1.43858
-1.49861
-1.56576
-1.64081
-1.72404
-1.8152
-1.91385
-2.01966
-2.1322
-2.25061
-2.37294
-2.49765
-2.62534
-2.75682
-2.8888
-3.02119
-0.936437
-0.925815
-0.917741
-0.91122
-0.906722
-0.904418
-0.904318
-0.906477
-0.910914
-0.917576
-0.92635
-0.937078
-0.949587
-0.963712
-0.979326
-0.996358
-1.01479
-1.03465
-1.05598
-1.07887
-1.10341
-1.12968
-1.15784
-1.18804
-1.22052
-1.2556
-1.29369
-1.33527
-1.38093
-1.4313
-1.4871
-1.54913
-1.61814
-1.6947
-1.77904
-1.87098
-1.97013
-2.07595
-2.18774
-2.30448
-2.42478
-2.5475
-2.6725
-2.7998
-2.92834
-3.05832
-0.953466
-0.944956
-0.938549
-0.933488
-0.930215
-0.92899
-0.929863
-0.932861
-0.937986
-0.945195
-0.954407
-0.965514
-0.978395
-0.992936
-1.00904
-1.02664
-1.04572
-1.06629
-1.08838
-1.11205
-1.1374
-1.16453
-1.19358
-1.22474
-1.25829
-1.29454
-1.3339
-1.3769
-1.42412
-1.47621
-1.53385
-1.59775
-1.66853
-1.74662
-1.83218
-1.92499
-2.02459
-2.13027
-2.24113
-2.35614
-2.47414
-2.59424
-2.71615
-2.83979
-2.96496
-3.09189
-0.97146
-0.965217
-0.96026
-0.956452
-0.954225
-0.953892
-0.955555
-0.959241
-0.964943
-0.972629
-0.98224
-0.993703
-1.00693
-1.02185
-1.03838
-1.05646
-1.07607
-1.09721
-1.11992
-1.14426
-1.1703
-1.19816
-1.22799
-1.26003
-1.29453
-1.33186
-1.37243
-1.41677
-1.46547
-1.51917
-1.57854
-1.64421
-1.7167
-1.79634
-1.88316
-1.97686
-2.07685
-2.18228
-2.29212
-2.40529
-2.5208
-2.63797
-2.7566
-2.8768
-2.99881
-3.123
-0.990176
-0.986057
-0.982256
-0.979489
-0.978142
-0.978551
-0.980865
-0.985124
-0.991321
-0.999432
-1.00941
-1.02122
-1.03478
-1.05003
-1.06693
-1.08541
-1.10546
-1.12708
-1.1503
-1.17517
-1.2018
-1.23029
-1.26083
-1.29364
-1.32903
-1.36735
-1.40905
-1.45465
-1.50475
-1.55999
-1.621
-1.68836
-1.76251
-1.84367
-1.93175
-2.02631
-2.12661
-2.23169
-2.3404
-2.45167
-2.56463
-2.67884
-2.79433
-2.91149
-3.03092
-3.15312
-1.00923
-1.0069
-1.00399
-1.00208
-1.00147
-1.00251
-1.00539
-1.01015
-1.01679
-1.0253
-1.03563
-1.04776
-1.06163
-1.07719
-1.0944
-1.11322
-1.13363
-1.15564
-1.17927
-1.2046
-1.23172
-1.26077
-1.29193
-1.32546
-1.36165
-1.40089
-1.44364
-1.49043
-1.54186
-1.59856
-1.66113
-1.73012
-1.80587
-1.8885
-1.97778
-2.07313
-2.17367
-2.27828
-2.38579
-2.49512
-2.60558
-2.71699
-2.82972
-2.94448
-3.06218
-3.18346
-1.02817
-1.02722
-1.025
-1.0238
-1.02384
-1.02545
-1.02884
-1.03407
-1.04113
-1.05001
-1.06068
-1.07311
-1.08725
-1.10308
-1.12056
-1.13966
-1.16037
-1.1827
-1.20668
-1.2324
-1.25995
-1.2895
-1.32123
-1.35541
-1.39234
-1.43244
-1.47617
-1.52407
-1.57676
-1.63484
-1.69891
-1.76944
-1.84672
-1.93074
-2.02114
-2.1172
-2.21787
-2.32195
-2.4282
-2.53564
-2.64377
-2.75272
-2.86322
-2.97637
-3.09336
-3.2149
-1.04648
-1.04656
-1.04491
-1.04435
-1.04496
-1.04711
-1.05099
-1.05666
-1.06413
-1.07336
-1.08435
-1.09705
-1.11143
-1.12749
-1.14519
-1.16452
-1.18548
-1.20809
-1.23238
-1.25845
-1.2864
-1.31641
-1.34867
-1.38345
-1.42108
-1.46198
-1.50663
-1.55558
-1.60945
-1.66884
-1.73432
-1.80632
-1.88503
-1.97034
-2.06175
-2.15839
-2.2591
-2.36258
-2.4676
-2.57328
-2.67938
-2.78637
-2.89538
-3.00786
-3.12526
-3.24828
-1.06371
-1.06454
-1.0634
-1.06342
-1.0646
-1.06727
-1.07163
-1.07773
-1.08557
-1.09514
-1.1064
-1.11935
-1.13395
-1.15019
-1.16808
-1.18761
-1.20879
-1.23165
-1.25624
-1.28263
-1.31097
-1.3414
-1.37416
-1.40951
-1.44781
-1.48947
-1.535
-1.58496
-1.63995
-1.70058
-1.76739
-1.84076
-1.92079
-2.00726
-2.09955
-2.19666
-2.29731
-2.40015
-2.50401
-2.60817
-2.71266
-2.81833
-2.92674
-3.03966
-3.15868
-3.28445
-1.0795
-1.08088
-1.08024
-1.08083
-1.08255
-1.08574
-1.09056
-1.09707
-1.10526
-1.11513
-1.12666
-1.13983
-1.15462
-1.17104
-1.1891
-1.20881
-1.23019
-1.25328
-1.27814
-1.30485
-1.33354
-1.36439
-1.39763
-1.43353
-1.47247
-1.51487
-1.56124
-1.61216
-1.66823
-1.73005
-1.79811
-1.87274
-1.95397
-2.04147
-2.13451
-2.23197
-2.3325
-2.43474
-2.53758
-2.64054
-2.74397
-2.8491
-2.9579
-3.07241
-3.19431
-3.32403
-1.09363
-1.09542
-1.09529
-1.09643
-1.0987
-1.10239
-1.10766
-1.11456
-1.12308
-1.13324
-1.14501
-1.15838
-1.17336
-1.18995
-1.20818
-1.22806
-1.24963
-1.27294
-1.29805
-1.32506
-1.35409
-1.38534
-1.41903
-1.45547
-1.49502
-1.53813
-1.58532
-1.63716
-1.69426
-1.7572
-1.82642
-1.90221
-1.98452
-2.07292
-2.16658
-2.26431
-2.36471
-2.46644
-2.56854
-2.67077
-2.7738
-2.87928
-2.98952
-3.10679
-3.23271
-3.36742
-1.10602
-1.10812
-1.10854
-1.11022
-1.11302
-1.1172
-1.1229
-1.13016
-1.139
-1.14942
-1.16142
-1.17499
-1.19015
-1.20692
-1.22531
-1.24536
-1.26712
-1.29063
-1.31598
-1.34326
-1.37262
-1.40424
-1.43837
-1.47532
-1.51546
-1.55926
-1.60723
-1.65996
-1.71803
-1.782
-1.85229
-1.92911
-2.01234
-2.1015
-2.19566
-2.29359
-2.39391
-2.49534
-2.5971
-2.6992
-2.80265
-2.90947
-3.02224
-3.14335
-3.2743
-3.4148
-1.11671
-1.11902
-1.12
-1.12222
-1.12554
-1.1302
-1.1363
-1.14391
-1.15304
-1.16371
-1.17592
-1.18969
-1.20503
-1.22197
-1.24052
-1.26074
-1.28268
-1.30638
-1.33195
-1.35949
-1.38916
-1.42113
-1.45568
-1.49312
-1.53383
-1.57828
-1.627
-1.68055
-1.73952
-1.80443
-1.87565
-1.95335
-2.03735
-2.1271
-2.22164
-2.31975
-2.42008
-2.5215
-2.62342
-2.7261
-2.83089
-2.94008
-3.05645
-3.18239
-3.31917
-3.46602
-1.12574
-1.12817
-1.12973
-1.13246
-1.1363
-1.14141
-1.14791
-1.15584
-1.16524
-1.17614
-1.18855
-1.20251
-1.21802
-1.23512
-1.25384
-1.27422
-1.29631
-1.32021
-1.34598
-1.37377
-1.40371
-1.43603
-1.47098
-1.50888
-1.55014
-1.59521
-1.64463
-1.69894
-1.75873
-1.82446
-1.89647
-1.97488
-2.05946
-2.14963
-2.24445
-2.34272
-2.44322
-2.54498
-2.64763
-2.75169
-2.85875
-2.9713
-3.09221
-3.22376
-3.36689
-3.52036
-1.13317
-1.1356
-1.13775
-1.14099
-1.14532
-1.15087
-1.15773
-1.16596
-1.17562
-1.18673
-1.19933
-1.21345
-1.22911
-1.24636
-1.26522
-1.28575
-1.30801
-1.33207
-1.35804
-1.38605
-1.41627
-1.44891
-1.48425
-1.5226
-1.56438
-1.61004
-1.6601
-1.71512
-1.77561
-1.84203
-1.91468
-1.99362
-2.0786
-2.16903
-2.26403
-2.3625
-2.46338
-2.56589
-2.66988
-2.77611
-2.88633
-3.0031
-3.12924
-3.26684
-3.41646
-3.57645
-1.13902
-1.14135
-1.14406
-1.14781
-1.15261
-1.15856
-1.16576
-1.17427
-1.18415
-1.19545
-1.20822
-1.22248
-1.23828
-1.25566
-1.27465
-1.2953
-1.3177
-1.34192
-1.36808
-1.3963
-1.42678
-1.45974
-1.49544
-1.53423
-1.5765
-1.62271
-1.67336
-1.72899
-1.79008
-1.85705
-1.93017
-2.00945
-2.09464
-2.18521
-2.28034
-2.37909
-2.4806
-2.5843
-2.69027
-2.79942
-2.91356
-3.03518
-3.16691
-3.31059
-3.46642
-3.6324
-1.1432
-1.14544
-1.14869
-1.15292
-1.15815
-1.16447
-1.17197
-1.18073
-1.19082
-1.20229
-1.2152
-1.22958
-1.24549
-1.26297
-1.28206
-1.30283
-1.32535
-1.34971
-1.37603
-1.40446
-1.43518
-1.46843
-1.50448
-1.54368
-1.58641
-1.63312
-1.6843
-1.74045
-1.80202
-1.86939
-1.9428
-2.02224
-2.10748
-2.19806
-2.2933
-2.39244
-2.49484
-2.60018
-2.70871
-2.82141
-2.94004
-3.06688
-3.20424
-3.35365
-3.51497
-3.68606
-1.1457
-1.14798
-1.15167
-1.15634
-1.16194
-1.16859
-1.17636
-1.18534
-1.1956
-1.20722
-1.22024
-1.23473
-1.25073
-1.26828
-1.28745
-1.30831
-1.33092
-1.3554
-1.38187
-1.41048
-1.44143
-1.47495
-1.51132
-1.55089
-1.59403
-1.64118
-1.69281
-1.74937
-1.81128
-1.8789
-1.95242
-2.03184
-2.11698
-2.20747
-2.3028
-2.40243
-2.50597
-2.61332
-2.72487
-2.84159
-2.96504
-3.09718
-3.2399
-3.39438
-3.56027
-3.73539
-1.14657
-1.14898
-1.15302
-1.15806
-1.16399
-1.17092
-1.17892
-1.18809
-1.19851
-1.21024
-1.22336
-1.23793
-1.25398
-1.2716
-1.29082
-1.31174
-1.33443
-1.359
-1.38558
-1.41435
-1.44549
-1.47925
-1.51591
-1.55579
-1.59929
-1.6468
-1.69877
-1.75563
-1.81775
-1.88544
-1.95889
-2.03812
-2.123
-2.21331
-2.30871
-2.40891
-2.51377
-2.62338
-2.73821
-2.85914
-2.98746
-3.12469
-3.27226
-3.43103
-3.60051
-3.77865
-1.14591
-1.14847
-1.15279
-1.15814
-1.16434
-1.1715
-1.17969
-1.18902
-1.19957
-1.2114
-1.2246
-1.23921
-1.25531
-1.27296
-1.29221
-1.31316
-1.3359
-1.36053
-1.3872
-1.41609
-1.44738
-1.48133
-1.51821
-1.55836
-1.60213
-1.64991
-1.70212
-1.75913
-1.8213
-1.8889
-1.96211
-2.04097
-2.12547
-2.21549
-2.31092
-2.41171
-2.51793
-2.62985
-2.74798
-2.87303
-3.00596
-3.14782
-3.2996
-3.4619
-3.63418
-3.81458
-1.1438
-1.14648
-1.15104
-1.15663
-1.16306
-1.1704
-1.17876
-1.18821
-1.19886
-1.21077
-1.22401
-1.23866
-1.25478
-1.27243
-1.29169
-1.31264
-1.33539
-1.36005
-1.38677
-1.41573
-1.44712
-1.4812
-1.51825
-1.55857
-1.60252
-1.65047
-1.70277
-1.7598
-1.82186
-1.8892
-1.96199
-2.04034
-2.12431
-2.21394
-2.30933
-2.41063
-2.51814
-2.63223
-2.75339
-2.88216
-3.01914
-3.16497
-3.32028
-3.4855
-3.66009
-3.84239
-1.14032
-1.14309
-1.14783
-1.15362
-1.16022
-1.16772
-1.17619
-1.18575
-1.19646
-1.20842
-1.22169
-1.23635
-1.25246
-1.27009
-1.28932
-1.31025
-1.33297
-1.35761
-1.38433
-1.4133
-1.44474
-1.47888
-1.51601
-1.55642
-1.60045
-1.64843
-1.7007
-1.75759
-1.81937
-1.88628
-1.9585
-2.03618
-2.11948
-2.20861
-2.30384
-2.40552
-2.51408
-2.62999
-2.75367
-2.88548
-3.02573
-3.17474
-3.33293
-3.50068
-3.67749
-3.86171
-1.13556
-1.13839
-1.14326
-1.1492
-1.15593
-1.16353
-1.1721
-1.18172
-1.19248
-1.20446
-1.21774
-1.23237
-1.24844
-1.26602
-1.28519
-1.30605
-1.3287
-1.35328
-1.37994
-1.40887
-1.44027
-1.47439
-1.5115
-1.55189
-1.59588
-1.64376
-1.69586
-1.75244
-1.81379
-1.8801
-1.95158
-2.02845
-2.11096
-2.19945
-2.29435
-2.39618
-2.50545
-2.62265
-2.74814
-2.88211
-3.0247
-3.17607
-3.33658
-3.5067
-3.68594
-3.87251
-1.12957
-1.13244
-1.1374
-1.14344
-1.15026
-1.15794
-1.16657
-1.17623
-1.18701
-1.19898
-1.21222
-1.22681
-1.24281
-1.2603
-1.27938
-1.30012
-1.32266
-1.34711
-1.37365
-1.40246
-1.43374
-1.46774
-1.50473
-1.54498
-1.58878
-1.63643
-1.68819
-1.74433
-1.80506
-1.87061
-1.94121
-2.01712
-2.09869
-2.18639
-2.28077
-2.38244
-2.49196
-2.60981
-2.73626
-2.87141
-3.01534
-3.16823
-3.3306
-3.50307
-3.68516
-3.87478
-1.12242
-1.1253
-1.13032
-1.13642
-1.14331
-1.15103
-1.15968
-1.16935
-1.18012
-1.19205
-1.20524
-1.21974
-1.23564
-1.25301
-1.27194
-1.29252
-1.31489
-1.33916
-1.3655
-1.39411
-1.42518
-1.45896
-1.4957
-1.53568
-1.57916
-1.6264
-1.67766
-1.73317
-1.79314
-1.85777
-1.92733
-2.00213
-2.08262
-2.16934
-2.26294
-2.36409
-2.47334
-2.59112
-2.71762
-2.85294
-2.99721
-3.15084
-3.31462
-3.48943
-3.67476
-3.86821
-1.11417
-1.11704
-1.12208
-1.12821
-1.13512
-1.14286
-1.15151
-1.16116
-1.17188
-1.18375
-1.19684
-1.21123
-1.22698
-1.24419
-1.26293
-1.2833
-1.30544
-1.32946
-1.35554
-1.38385
-1.41462
-1.44806
-1.48444
-1.52399
-1.56699
-1.61367
-1.66426
-1.71896
-1.77797
-1.84151
-1.90986
-1.98339
-2.0626
-2.14814
-2.24069
-2.3409
-2.44932
-2.56627
-2.69194
-2.82643
-2.97009
-3.12366
-3.28834
-3.46529
-3.65395
-3.85174
-1.10484
-1.1077
-1.11273
-1.11886
-1.12577
-1.13349
-1.14211
-1.15171
-1.16236
-1.17413
-1.1871
-1.20133
-1.2169
-1.23389
-1.2524
-1.27251
-1.29435
-1.31805
-1.34378
-1.37172
-1.40207
-1.43506
-1.47094
-1.50994
-1.5523
-1.59824
-1.64798
-1.70169
-1.75956
-1.82183
-1.88877
-1.96083
-2.03857
-2.12266
-2.2138
-2.31264
-2.41962
-2.53502
-2.65897
-2.7917
-2.93383
-3.0865
-3.25136
-3.42987
-3.62139
-3.82332
-1.09449
-1.09731
-1.10231
-1.10842
-1.11529
-1.12297
-1.13153
-1.14105
-1.15159
-1.16324
-1.17604
-1.19008
-1.20543
-1.22217
-1.24038
-1.26017
-1.28166
-1.30497
-1.33027
-1.35774
-1.38757
-1.41999
-1.45523
-1.49353
-1.53509
-1.58014
-1.62884
-1.68138
-1.73794
-1.79873
-1.86408
-1.93446
-2.01047
-2.09281
-2.18218
-2.27915
-2.3841
-2.49721
-2.61862
-2.74871
-2.88838
-3.03921
-3.20326
-3.38222
-3.5754
-3.78049
-1.08315
-1.08592
-1.09086
-1.09691
-1.10373
-1.11134
-1.11981
-1.12922
-1.13963
-1.15111
-1.16372
-1.17753
-1.19262
-1.20905
-1.22693
-1.24634
-1.26741
-1.29025
-1.31504
-1.34194
-1.37115
-1.40288
-1.43736
-1.4748
-1.51541
-1.55939
-1.60689
-1.65808
-1.71313
-1.77226
-1.83581
-1.90428
-1.9783
-2.05856
-2.14575
-2.24036
-2.34267
-2.4528
-2.57091
-2.69752
-2.83383
-2.98176
-3.14368
-3.32146
-3.5144
-3.72078
-1.07083
-1.07355
-1.07841
-1.08438
-1.09112
-1.09863
-1.10699
-1.11627
-1.12651
-1.13779
-1.15018
-1.16372
-1.1785
-1.19459
-1.21207