/*--------------------------------*- C++ -*----------------------------------*\
  =========                 |
  \\      /  F ield         | OpenFOAM: The Open Source CFD Toolbox
   \\    /   O peration     | Website:  https://openfoam.org
    \\  /    A nd           | Version:  7
     \\/     M anipulation  |
\*---------------------------------------------------------------------------*/
FoamFile
{
    version     2.0;
    format      ascii;
    class       surfaceScalarField;
    location    "0.35";
    object      phi;
}
// * * * * * * * * * * * * * * * * * * * * * * * * * * * * * * * * * * * * * //

dimensions      [0 3 -1 0 0 0 0];

internalField   nonuniform List<scalar> 
17936
(
-1.89698e-06
1.89698e-06
-2.32966e-06
4.32684e-07
-1.60558e-06
-7.24078e-07
-3.95295e-07
-1.21029e-06
9.79771e-07
-1.37507e-06
2.3895e-06
-1.40973e-06
3.76383e-06
-1.37433e-06
5.07527e-06
-1.31144e-06
6.31779e-06
-1.24252e-06
7.49537e-06
-1.17758e-06
8.61649e-06
-1.12112e-06
9.69103e-06
-1.07454e-06
1.07285e-05
-1.03747e-06
1.17372e-05
-1.00871e-06
1.27239e-05
-9.86711e-07
1.36938e-05
-9.69857e-07
1.46503e-05
-9.56556e-07
1.55956e-05
-9.45297e-07
1.65303e-05
-9.34653e-07
1.74535e-05
-9.23248e-07
1.83632e-05
-9.09722e-07
1.92559e-05
-8.92681e-07
2.01266e-05
-8.70643e-07
2.09685e-05
-8.41975e-07
2.17734e-05
-8.0482e-07
2.25304e-05
-7.57001e-07
2.32263e-05
-6.95911e-07
2.38446e-05
-6.18296e-07
2.43646e-05
-5.20049e-07
2.47592e-05
-3.94578e-07
2.49921e-05
-2.32931e-07
2.49971e-05
-5.01759e-09
2.46647e-05
3.32491e-07
2.39266e-05
7.3804e-07
2.26916e-05
1.23504e-06
2.08514e-05
1.84018e-06
1.82969e-05
2.55447e-06
1.49546e-05
3.34231e-06
1.08503e-05
4.10431e-06
6.17609e-06
4.67423e-06
1.29254e-06
4.88355e-06
-3.77204e-06
5.06458e-06
-8.66516e-06
4.89312e-06
-1.09335e-05
2.26833e-06
-8.06576e-06
-2.86773e-06
-8.06577e-06
-1.33252e-06
3.2295e-06
-1.15665e-06
2.56809e-07
-3.74084e-07
-1.50664e-06
7.42935e-07
-2.3273e-06
2.03068e-06
-2.66281e-06
3.36726e-06
-2.74631e-06
4.69305e-06
-2.70012e-06
5.97886e-06
-2.59725e-06
7.21403e-06
-2.47768e-06
8.39836e-06
-2.36191e-06
9.53677e-06
-2.25954e-06
1.06362e-05
-2.17392e-06
1.17036e-05
-2.10493e-06
1.27456e-05
-2.05071e-06
1.37675e-05
-2.00858e-06
1.47733e-05
-1.97566e-06
1.57658e-05
-1.94903e-06
1.67464e-05
-1.92589e-06
1.77152e-05
-1.90352e-06
1.86713e-05
-1.87931e-06
1.96122e-05
-1.85061e-06
2.05342e-05
-1.81472e-06
2.14323e-05
-1.76872e-06
2.22997e-05
-1.7094e-06
2.3128e-05
-1.6331e-06
2.39065e-05
-1.53556e-06
2.46223e-05
-1.41166e-06
2.52591e-05
-1.25512e-06
2.57971e-05
-1.058e-06
2.62119e-05
-8.09444e-07
2.64747e-05
-4.95692e-07
2.65629e-05
-9.32355e-08
2.64586e-05
4.3678e-07
2.60858e-05
1.11091e-06
2.53608e-05
1.96001e-06
2.4182e-05
3.01896e-06
2.24223e-05
4.31422e-06
1.99312e-05
5.83337e-06
1.65648e-05
7.4707e-06
1.22615e-05
8.97749e-06
7.1587e-06
9.98637e-06
1.74543e-06
1.04779e-05
-3.27742e-06
9.91597e-06
-6.31404e-06
5.30495e-06
-6.12342e-06
-3.05834e-06
-1.41892e-05
-6.62227e-07
3.89173e-06
-3.04815e-07
-1.00604e-07
4.76271e-07
-2.28773e-06
1.54175e-06
-3.39278e-06
2.75571e-06
-3.87678e-06
4.02461e-06
-4.01521e-06
5.29515e-06
-3.97066e-06
6.53944e-06
-3.84154e-06
7.74569e-06
-3.68394e-06
8.91162e-06
-3.52784e-06
1.00399e-05
-3.38781e-06
1.11353e-05
-3.26934e-06
1.22033e-05
-3.17288e-06
1.32488e-05
-3.09622e-06
1.42761e-05
-3.0359e-06
1.52884e-05
-2.98799e-06
1.62878e-05
-2.94847e-06
1.72753e-05
-2.91339e-06
1.82507e-05
-2.8789e-06
1.92126e-05
-2.84121e-06
2.01585e-05
-2.7965e-06
2.10846e-05
-2.74079e-06
2.19857e-05
-2.6698e-06
2.28551e-05
-2.57881e-06
2.36844e-05
-2.46244e-06
2.44633e-05
-2.31443e-06
2.51789e-05
-2.12731e-06
2.58158e-05
-1.892e-06
2.6355e-05
-1.59716e-06
2.67738e-05
-1.22823e-06
2.70447e-05
-7.66643e-07
2.7139e-05
-1.87532e-07
2.70296e-05
5.46184e-07
2.66706e-05
1.46989e-06
2.60064e-05
2.62425e-06
2.49718e-05
4.05357e-06
2.34909e-05
5.79507e-06
2.14734e-05
7.85092e-06
1.88121e-05
1.0132e-05
1.54027e-05
1.23869e-05
1.12437e-05
1.41454e-05
6.67348e-06
1.5048e-05
2.25605e-06
1.43334e-05
-1.50685e-06
9.06785e-06
-3.18962e-06
-1.37557e-06
-1.73788e-05
-9.32997e-08
3.98502e-06
3.57688e-07
-5.51591e-07
1.16267e-06
-3.09271e-06
2.19791e-06
-4.42802e-06
3.35971e-06
-5.03857e-06
4.57369e-06
-5.22919e-06
5.79484e-06
-5.19181e-06
6.99851e-06
-5.04521e-06
8.17342e-06
-4.85885e-06
9.31639e-06
-4.67082e-06
1.04287e-05
-4.50008e-06
1.15136e-05
-4.35424e-06
1.25751e-05
-4.23442e-06
1.36172e-05
-4.13829e-06
1.46431e-05
-4.06179e-06
1.56552e-05
-4.00017e-06
1.66552e-05
-3.94846e-06
1.76436e-05
-3.90171e-06
1.86197e-05
-3.85503e-06
1.9582e-05
-3.80357e-06
2.05279e-05
-3.74236e-06
2.14533e-05
-3.66623e-06
2.23531e-05
-3.56961e-06
2.32207e-05
-3.44633e-06
2.40476e-05
-3.28938e-06
2.48238e-05
-3.09061e-06
2.55368e-05
-2.84035e-06
2.61718e-05
-2.52693e-06
2.67106e-05
-2.13597e-06
2.71318e-05
-1.64951e-06
2.74102e-05
-1.04504e-06
2.75174e-05
-2.94661e-07
2.74236e-05
6.39942e-07
2.70924e-05
1.80107e-06
2.64816e-05
3.23509e-06
2.55452e-05
4.98996e-06
2.42355e-05
7.10476e-06
2.25019e-05
9.5845e-06
2.02848e-05
1.23491e-05
1.75116e-05
1.51602e-05
1.41334e-05
1.75236e-05
1.03201e-05
1.88613e-05
6.44997e-06
1.82035e-05
2.65645e-06
1.28614e-05
6.28421e-08
1.21804e-06
-1.7316e-05
3.32729e-07
3.6523e-06
8.82375e-07
-1.10124e-06
1.72655e-06
-3.93689e-06
2.75453e-06
-5.456e-06
3.88333e-06
-6.16737e-06
5.05511e-06
-6.40097e-06
6.23426e-06
-6.37097e-06
7.40084e-06
-6.21178e-06
8.54529e-06
-6.0033e-06
9.6645e-06
-5.79002e-06
1.0759e-05
-5.59454e-06
1.1831e-05
-5.42625e-06
1.28835e-05
-5.28694e-06
1.39194e-05
-5.17423e-06
1.49413e-05
-5.08363e-06
1.59508e-05
-5.0097e-06
1.6949e-05
-4.94668e-06
1.7936e-05
-4.88871e-06
1.8911e-05
-4.82997e-06
1.9872e-05
-4.76461e-06
2.08163e-05
-4.68663e-06
2.17398e-05
-4.58972e-06
2.26372e-05
-4.46708e-06
2.35021e-05
-4.31116e-06
2.43261e-05
-4.1134e-06
2.50994e-05
-3.8639e-06
2.581e-05
-3.55094e-06
2.64435e-05
-3.16047e-06
2.69829e-05
-2.67541e-06
2.74082e-05
-2.07474e-06
2.76958e-05
-1.33265e-06
2.78192e-05
-4.18024e-07
2.77499e-05
7.09187e-07
2.74567e-05
2.09432e-06
2.69057e-05
3.78607e-06
2.60631e-05
5.83257e-06
2.48972e-05
8.27065e-06
2.33787e-05
1.11029e-05
2.14752e-05
1.42526e-05
1.91403e-05
1.74951e-05
1.63124e-05
2.03514e-05
1.30404e-05
2.21333e-05
9.54929e-06
2.16946e-05
5.80748e-06
1.66032e-05
2.18195e-06
4.84357e-06
-1.5134e-05
5.76672e-07
3.07562e-06
1.27578e-06
-1.80035e-06
2.18307e-06
-4.84418e-06
3.22385e-06
-6.49677e-06
4.33572e-06
-7.27924e-06
5.47673e-06
-7.54198e-06
6.62134e-06
-7.51557e-06
7.75521e-06
-7.34566e-06
8.87143e-06
-7.11951e-06
9.96765e-06
-6.88624e-06
1.10442e-05
-6.67106e-06
1.21026e-05
-6.4847e-06
1.31452e-05
-6.32947e-06
1.41739e-05
-6.20296e-06
1.51906e-05
-6.10032e-06
1.61964e-05
-6.01554e-06
1.71919e-05
-5.94214e-06
1.81767e-05
-5.8735e-06
1.91496e-05
-5.80295e-06
2.01088e-05
-5.72372e-06
2.1051e-05
-5.62883e-06
2.19722e-05
-5.51093e-06
2.28671e-05
-5.36203e-06
2.37293e-05
-5.17332e-06
2.45507e-05
-4.93477e-06
2.53216e-05
-4.63484e-06
2.60306e-05
-4.25993e-06
2.6664e-05
-3.79385e-06
2.72056e-05
-3.21709e-06
2.76369e-05
-2.50597e-06
2.79361e-05
-1.63187e-06
2.80789e-05
-5.60809e-07
2.80392e-05
7.48818e-07
2.77898e-05
2.34374e-06
2.73029e-05
4.27294e-06
2.65527e-05
6.58281e-06
2.5517e-05
9.30636e-06
2.41776e-05
1.24423e-05
2.25146e-05
1.59155e-05
2.04946e-05
1.95152e-05
1.80545e-05
2.27915e-05
1.51705e-05
2.50174e-05
1.19129e-05
2.49522e-05
8.14414e-06
2.03719e-05
3.91979e-06
9.06793e-06
-1.12142e-05
7.09864e-07
2.36576e-06
1.55969e-06
-2.65017e-06
2.54568e-06
-5.83017e-06
3.61355e-06
-7.56464e-06
4.72063e-06
-8.38632e-06
5.84021e-06
-8.66157e-06
6.95696e-06
-8.63232e-06
8.06263e-06
-8.45133e-06
9.15344e-06
-8.21032e-06
1.02283e-05
-7.96109e-06
1.12876e-05
-7.73041e-06
1.23328e-05
-7.52984e-06
1.33652e-05
-7.36194e-06
1.43865e-05
-7.22422e-06
1.53977e-05
-7.11151e-06
1.63994e-05
-7.01729e-06
1.73918e-05
-6.9345e-06
1.83741e-05
-6.85579e-06
1.93449e-05
-6.77373e-06
2.03019e-05
-6.68073e-06
2.12419e-05
-6.5689e-06
2.21609e-05
-6.42989e-06
2.30535e-05
-6.25465e-06
2.39134e-05
-6.03315e-06
2.47326e-05
-5.75402e-06
2.55019e-05
-5.40418e-06
2.62104e-05
-4.96835e-06
2.68449e-05
-4.42841e-06
2.73906e-05
-3.76273e-06
2.78299e-05
-2.94531e-06
2.81432e-05
-1.94517e-06
2.83084e-05
-7.26001e-07
2.83021e-05
7.55091e-07
2.81006e-05
2.54533e-06
2.76806e-05
4.6929e-06
2.70217e-05
7.24166e-06
2.61075e-05
1.02206e-05
2.49247e-05
1.36251e-05
2.34578e-05
1.73824e-05
2.16766e-05
2.12964e-05
1.95164e-05
2.49516e-05
1.69069e-05
2.76269e-05
1.37914e-05
2.80677e-05
9.94366e-06
2.42197e-05
5.22719e-06
1.37844e-05
-5.98704e-06
7.84084e-07
1.58168e-06
1.76445e-06
-3.63053e-06
2.83059e-06
-6.89631e-06
3.93209e-06
-8.66615e-06
5.04176e-06
-9.49599e-06
6.1466e-06
-9.76641e-06
7.24094e-06
-9.72665e-06
8.32255e-06
-9.53294e-06
9.3909e-06
-9.27867e-06
1.04464e-05
-9.01657e-06
1.14899e-05
-8.77392e-06
1.25225e-05
-8.56246e-06
1.35454e-05
-8.38479e-06
1.45594e-05
-8.23823e-06
1.55652e-05
-8.11729e-06
1.65629e-05
-8.015e-06
1.75521e-05
-7.92373e-06
1.85319e-05
-7.83555e-06
1.95004e-05
-7.74231e-06
2.04554e-05
-7.63568e-06
2.13934e-05
-7.50692e-06
2.23103e-05
-7.34679e-06
2.32009e-05
-7.14523e-06
2.40588e-05
-6.89107e-06
2.48765e-05
-6.57172e-06
2.56451e-05
-6.17272e-06
2.63539e-05
-5.67724e-06
2.6991e-05
-5.06548e-06
2.75422e-05
-4.31396e-06
2.79917e-05
-3.39476e-06
2.83214e-05
-2.27491e-06
2.85117e-05
-9.16269e-07
2.85418e-05
7.24999e-07
2.8391e-05
2.69612e-06
2.80398e-05
5.04403e-06
2.74716e-05
7.8099e-06
2.66729e-05
1.10193e-05
2.56323e-05
1.46657e-05
2.43341e-05
1.86806e-05
2.27457e-05
2.28848e-05
2.07969e-05
2.69005e-05
1.83814e-05
3.00424e-05
1.53485e-05
3.11006e-05
1.13914e-05
2.81768e-05
6.23602e-06
1.89397e-05
2.48973e-07
8.32025e-07
7.49651e-07
1.91688e-06
-4.71539e-06
3.05461e-06
-8.03405e-06
4.18904e-06
-9.80057e-06
5.30393e-06
-1.06109e-05
6.39786e-06
-1.08603e-05
7.47372e-06
-1.08025e-05
8.53474e-06
-1.0594e-05
9.58345e-06
-1.03274e-05
1.06217e-05
-1.00548e-05
1.16509e-05
-9.80313e-06
1.26722e-05
-9.58368e-06
1.36862e-05
-9.39879e-06
1.46934e-05
-9.24552e-06
1.56941e-05
-9.118e-06
1.6688e-05
-9.00886e-06
1.76743e-05
-8.90999e-06
1.86516e-05
-8.81289e-06
1.96181e-05
-8.70879e-06
2.05711e-05
-8.58868e-06
2.15072e-05
-8.44306e-06
2.24223e-05
-8.26185e-06
2.33111e-05
-8.03405e-06
2.41675e-05
-7.74749e-06
2.49842e-05
-7.38842e-06
2.57527e-05
-6.94115e-06
2.64629e-05
-6.38749e-06
2.71036e-05
-5.70619e-06
2.76619e-05
-4.87221e-06
2.81232e-05
-3.85603e-06
2.84714e-05
-2.62311e-06
2.8689e-05
-1.1339e-06
2.87579e-05
6.56097e-07
2.86602e-05
2.79385e-06
2.83793e-05
5.32489e-06
2.79012e-05
8.288e-06
2.72142e-05
1.17063e-05
2.6307e-05
1.5573e-05
2.51615e-05
1.98261e-05
2.37402e-05
2.43061e-05
2.19641e-05
2.86765e-05
1.9697e-05
3.23095e-05
1.6717e-05
3.40806e-05
1.26417e-05
3.2252e-05
7.07847e-06
2.4503e-05
7.32745e-06
8.69841e-07
-1.2019e-07
2.03651e-06
-5.88206e-06
3.23255e-06
-9.23009e-06
4.39398e-06
-1.0962e-05
5.5128e-06
-1.17297e-05
6.59709e-06
-1.19446e-05
7.65687e-06
-1.18623e-05
8.69997e-06
-1.16371e-05
9.73151e-06
-1.13589e-05
1.07546e-05
-1.1078e-05
1.17712e-05
-1.08197e-05
1.27822e-05
-1.05947e-05
1.37882e-05
-1.04048e-05
1.47894e-05
-1.02467e-05
1.57855e-05
-1.01141e-05
1.67758e-05
-9.99918e-06
1.77593e-05
-9.89347e-06
1.87343e-05
-9.78794e-06
1.96988e-05
-9.67328e-06
2.065e-05
-9.53983e-06
2.15843e-05
-9.37743e-06
2.24977e-05
-9.17521e-06
2.3385e-05
-8.92134e-06
2.42402e-05
-8.6027e-06
2.50563e-05
-8.20453e-06
2.58252e-05
-7.71004e-06
2.65375e-05
-7.09984e-06
2.71828e-05
-6.35146e-06
2.77492e-05
-5.43863e-06
2.82237e-05
-4.33053e-06
2.8592e-05
-2.99143e-06
2.88389e-05
-1.38073e-06
2.89485e-05
5.46469e-07
2.89056e-05
2.83676e-06
2.86961e-05
5.53439e-06
2.83079e-05
8.67616e-06
2.77305e-05
1.22837e-05
2.6952e-05
1.63516e-05
2.59515e-05
2.08266e-05
2.46862e-05
2.55714e-05
2.30675e-05
3.02953e-05
2.09334e-05
3.44437e-05
1.80048e-05
3.70091e-05
1.38253e-05
3.64315e-05
7.91156e-06
3.04168e-05
1.5239e-05
9.05884e-07
-1.02607e-06
2.13634e-06
-7.11252e-06
3.37598e-06
-1.04697e-05
4.55551e-06
-1.21415e-05
5.67426e-06
-1.28485e-05
6.7482e-06
-1.30186e-05
7.79305e-06
-1.29071e-05
8.82011e-06
-1.26641e-05
9.83649e-06
-1.23753e-05
1.08463e-05
-1.20878e-05
1.18517e-05
-1.18251e-05
1.28537e-05
-1.15967e-05
1.38526e-05
-1.14038e-05
1.48483e-05
-1.12424e-05
1.58401e-05
-1.11059e-05
1.68272e-05
-1.09862e-05
1.7808e-05
-1.08743e-05
1.87809e-05
-1.07608e-05
1.97434e-05
-1.06358e-05
2.06927e-05
-1.04891e-05
2.16253e-05
-1.031e-05
2.2537e-05
-1.00869e-05
2.34228e-05
-9.80717e-06
2.4277e-05
-9.45685e-06
2.50928e-05
-9.02029e-06
2.58624e-05
-8.47971e-06
2.65773e-05
-7.81475e-06
2.72278e-05
-7.00192e-06
2.78032e-05
-6.014e-06
2.82919e-05
-4.81926e-06
2.86815e-05
-3.38107e-06
2.89589e-05
-1.65812e-06
2.91107e-05
3.94721e-07
2.91238e-05
2.82362e-06
2.89865e-05
5.67175e-06
2.86883e-05
8.97435e-06
2.82196e-05
1.27524e-05
2.75681e-05
1.70031e-05
2.67111e-05
2.16836e-05
2.56014e-05
2.6681e-05
2.41425e-05
3.17542e-05
2.21514e-05
3.64348e-05
1.93013e-05
3.98592e-05
1.50575e-05
4.06753e-05
8.81552e-06
3.66588e-05
2.40545e-05
9.44176e-07
-1.97025e-06
2.2244e-06
-8.39274e-06
3.49315e-06
-1.17385e-05
4.68066e-06
-1.3329e-05
5.79394e-06
-1.39617e-05
6.85566e-06
-1.40803e-05
7.88578e-06
-1.39373e-05
8.89804e-06
-1.36764e-05
9.90082e-06
-1.33781e-05
1.08988e-05
-1.30857e-05
1.18943e-05
-1.28206e-05
1.28883e-05
-1.25907e-05
1.38808e-05
-1.23963e-05
1.48715e-05
-1.2233e-05
1.58594e-05
-1.20938e-05
1.68433e-05
-1.19701e-05
1.78216e-05
-1.18526e-05
1.87922e-05
-1.17314e-05
1.97526e-05
-1.15963e-05
2.07e-05
-1.14365e-05
2.16307e-05
-1.12407e-05
2.25406e-05
-1.09968e-05
2.34249e-05
-1.06914e-05
2.42779e-05
-1.03099e-05
2.50933e-05
-9.83572e-06
2.58639e-05
-9.25028e-06
2.65816e-05
-8.5324e-06
2.72375e-05
-7.65785e-06
2.78222e-05
-6.59875e-06
2.83258e-05
-5.32277e-06
2.87374e-05
-3.79273e-06
2.90462e-05
-1.96687e-06
2.92409e-05
2.00019e-07
2.93108e-05
2.75372e-06
2.9246e-05
5.73652e-06
2.90379e-05
9.18247e-06
2.86778e-05
1.31124e-05
2.81539e-05
1.7527e-05
2.7443e-05
2.23945e-05
2.64964e-05
2.76277e-05
2.52131e-05
3.30375e-05
2.33965e-05
3.82514e-05
2.06811e-05
4.25746e-05
1.64505e-05
4.49059e-05
9.92003e-06
4.31892e-05
3.39746e-05
9.86501e-07
-2.95675e-06
2.30518e-06
-9.71142e-06
3.5895e-06
-1.30228e-05
4.77492e-06
-1.45145e-05
5.87704e-06
-1.50639e-05
6.92419e-06
-1.51274e-05
7.9393e-06
-1.49524e-05
8.9375e-06
-1.46746e-05
9.9278e-06
-1.43684e-05
1.09151e-05
-1.4073e-05
1.19016e-05
-1.38071e-05
1.28883e-05
-1.35774e-05
1.3875e-05
-1.3383e-05
1.4861e-05
-1.3219e-05
1.58451e-05
-1.30779e-05
1.68258e-05
-1.29508e-05
1.78013e-05
-1.28281e-05
1.87694e-05
-1.26995e-05
1.97275e-05
-1.25544e-05
2.06726e-05
-1.23815e-05
2.16011e-05
-1.21692e-05
2.25089e-05
-1.19046e-05
2.33913e-05
-1.15739e-05
2.4243e-05
-1.11616e-05
2.50578e-05
-1.06506e-05
2.58291e-05
-1.00216e-05
2.65494e-05
-9.25267e-06
2.72107e-05
-8.31918e-06
2.78048e-05
-7.19283e-06
2.83231e-05
-5.84111e-06
2.8757e-05
-4.22656e-06
2.90973e-05
-2.30721e-06
2.93352e-05
-3.78819e-08
2.9462e-05
2.62689e-06
2.94699e-05
5.7287e-06
2.93518e-05
9.30059e-06
2.91006e-05
1.33635e-05
2.8706e-05
1.79216e-05
2.81465e-05
2.2954e-05
2.73752e-05
2.83989e-05
2.62932e-05
3.41194e-05
2.47005e-05
3.98442e-05
2.22076e-05
4.50675e-05
1.81225e-05
4.89911e-05
1.13925e-05
4.99192e-05
4.53671e-05
1.03387e-06
-3.99062e-06
2.38087e-06
-1.10584e-05
3.66833e-06
-1.43103e-05
4.84251e-06
-1.56886e-05
5.9283e-06
-1.61496e-05
6.95869e-06
-1.61578e-05
7.95835e-06
-1.5952e-05
8.94292e-06
-1.56591e-05
9.92147e-06
-1.53469e-05
1.08988e-05
-1.50503e-05
1.18771e-05
-1.47854e-05
1.28569e-05
-1.45572e-05
1.38379e-05
-1.4364e-05
1.48192e-05
-1.42003e-05
1.57993e-05
-1.4058e-05
1.67766e-05
-1.39281e-05
1.7749e-05
-1.38005e-05
1.87141e-05
-1.36646e-05
1.96694e-05
-1.35096e-05
2.06116e-05
-1.33238e-05
2.15372e-05
-1.30949e-05
2.24424e-05
-1.28098e-05
2.33224e-05
-1.24539e-05
2.41722e-05
-1.20114e-05
2.4986e-05
-1.14644e-05
2.57575e-05
-1.07931e-05
2.64799e-05
-9.97511e-06
2.71462e-05
-8.98542e-06
2.77491e-05
-7.79579e-06
2.82818e-05
-6.3738e-06
2.87374e-05
-4.68213e-06
2.9109e-05
-2.67875e-06
2.93897e-05
-3.18584e-07
2.95729e-05
2.44361e-06
2.96528e-05
5.64883e-06
2.96242e-05
9.32921e-06
2.94821e-05
1.35056e-05
2.92187e-05
1.8185e-05
2.88164e-05
2.33562e-05
2.82352e-05
2.89802e-05
2.73856e-05
3.4969e-05
2.60796e-05
4.11502e-05
2.39297e-05
4.72174e-05
2.01985e-05
5.27223e-05
1.34604e-05
5.66573e-05
5.88274e-05
1.08696e-06
-5.07758e-06
2.45193e-06
-1.24234e-05
3.73141e-06
-1.55897e-05
4.88681e-06
-1.6844e-05
5.95226e-06
-1.72151e-05
6.96425e-06
-1.71698e-05
7.94811e-06
-1.69359e-05
8.91928e-06
-1.66303e-05
9.8865e-06
-1.63141e-05
1.08542e-05
-1.60181e-05
1.18244e-05
-1.57556e-05
1.27974e-05
-1.55302e-05
1.37726e-05
-1.53392e-05
1.47488e-05
-1.51765e-05
1.57245e-05
-1.50337e-05
1.66978e-05
-1.49014e-05
1.76664e-05
-1.47691e-05
1.86278e-05
-1.46261e-05
1.95794e-05
-1.44612e-05
2.0518e-05
-1.42623e-05
2.144e-05
-1.40169e-05
2.23416e-05
-1.37114e-05
2.32184e-05
-1.33307e-05
2.40655e-05
-1.28584e-05
2.48775e-05
-1.22764e-05
2.56484e-05
-1.15641e-05
2.63722e-05
-1.06989e-05
2.70425e-05
-9.65571e-06
2.76534e-05
-8.40665e-06
2.81994e-05
-6.91984e-06
2.86757e-05
-5.15839e-06
2.90774e-05
-3.08045e-06
2.93998e-05
-6.41003e-07
2.96383e-05
2.20504e-06
2.9789e-05
5.49819e-06
2.98487e-05
9.26955e-06
2.98149e-05
1.35394e-05
2.96837e-05
1.83162e-05
2.9444e-05
2.3596e-05
2.90664e-05
2.93578e-05
2.84806e-05
3.55548e-05
2.75302e-05
4.21006e-05
2.58706e-05
4.8877e-05
2.28112e-05
5.57817e-05
1.64411e-05
6.30274e-05
7.52685e-05
1.14258e-06
-6.22016e-06
2.51731e-06
-1.37981e-05
3.77965e-06
-1.68521e-05
4.91077e-06
-1.79752e-05
5.95344e-06
-1.82578e-05
6.94626e-06
-1.81626e-05
7.91429e-06
-1.79039e-05
8.87228e-06
-1.75883e-05
9.82836e-06
-1.72702e-05
1.07866e-05
-1.69763e-05
1.17486e-05
-1.67176e-05
1.27144e-05
-1.6496e-05
1.36834e-05
-1.63081e-05
1.4654e-05
-1.61471e-05
1.56246e-05
-1.60043e-05
1.6593e-05
-1.58698e-05
1.75569e-05
-1.5733e-05
1.85138e-05
-1.5583e-05
1.94608e-05
-1.54081e-05
2.03947e-05
-1.51962e-05
2.13121e-05
-1.49344e-05
2.22092e-05
-1.46084e-05
2.30817e-05
-1.42032e-05
2.39251e-05
-1.37018e-05
2.47342e-05
-1.30855e-05
2.55036e-05
-1.23335e-05
2.62277e-05
-1.14229e-05
2.69009e-05
-1.03289e-05
2.75183e-05
-9.02409e-06
2.80762e-05
-7.47774e-06
2.85716e-05
-5.65378e-06
2.90018e-05
-3.51066e-06
2.93642e-05
-1.0034e-06
2.96562e-05
1.9131e-06
2.98755e-05
5.27885e-06
3.00213e-05
9.12377e-06
3.0094e-05
1.34667e-05
3.00943e-05
1.83159e-05
3.00193e-05
2.3671e-05
2.98545e-05
2.95225e-05
2.95575e-05
3.58519e-05
2.90242e-05
4.26339e-05
2.80123e-05
4.98889e-05
2.599e-05
5.7804e-05
2.03857e-05
6.86318e-05
9.56542e-05
5.91144e-08
-5.91144e-08
-1.45505e-06
1.51415e-06
-3.24598e-06
1.79092e-06
-4.74884e-06
1.50286e-06
-5.81263e-06
1.0638e-06
-6.41628e-06
6.03635e-07
-6.61141e-06
1.95125e-07
-6.458e-06
-1.5341e-07
-6.04249e-06
-4.15522e-07
-5.4292e-06
-6.13298e-07
-4.66948e-06
-7.59716e-07
-3.80797e-06
-8.61513e-07
-2.88343e-06
-9.24569e-07
-1.93052e-06
-9.52897e-07
-9.80444e-07
-9.50057e-07
-6.03097e-08
-9.20159e-07
8.06863e-07
-8.67142e-07
1.60107e-06
-7.94206e-07
2.30618e-06
-7.0511e-07
2.91035e-06
-6.04166e-07
3.40572e-06
-4.95366e-07
3.78839e-06
-3.82667e-07
4.058e-06
-2.69617e-07
4.21703e-06
-1.59017e-07
4.26951e-06
-5.24833e-08
4.21918e-06
5.03194e-08
4.07644e-06
1.42743e-07
3.85054e-06
2.25898e-07
3.55091e-06
2.99615e-07
3.18667e-06
3.64254e-07
2.76708e-06
4.19585e-07
2.3021e-06
4.64977e-07
1.80371e-06
4.98423e-07
1.2883e-06
5.15383e-07
7.82941e-07
5.05397e-07
3.39392e-07
4.43542e-07
4.73641e-08
2.92031e-07
4.73367e-08
-6.16479e-07
5.57343e-07
-2.28399e-06
3.18164e-06
-4.05209e-06
3.55903e-06
-5.44182e-06
2.89256e-06
-6.36541e-06
1.98739e-06
-6.83766e-06
1.07587e-06
-6.9329e-06
2.90342e-07
-6.72651e-06
-3.59803e-07
-6.27661e-06
-8.6542e-07
-5.63573e-06
-1.25421e-06
-4.85356e-06
-1.54189e-06
-3.97238e-06
-1.74268e-06
-3.02983e-06
-1.86714e-06
-2.05932e-06
-1.92342e-06
-1.09046e-06
-1.91886e-06
-1.4972e-07
-1.86092e-06
7.39834e-07
-1.75669e-06
1.55831e-06
-1.61267e-06
2.28952e-06
-1.43631e-06
2.92113e-06
-1.23579e-06
3.44461e-06
-1.01884e-06
3.85514e-06
-7.9318e-07
4.15131e-06
-5.65809e-07
4.33479e-06
-3.4249e-07
4.40983e-06
-1.27526e-07
4.38391e-06
7.62316e-08
4.26197e-06
2.64669e-07
4.05131e-06
4.36569e-07
3.76022e-06
5.90681e-07
3.39813e-06
7.2636e-07
2.97529e-06
8.42463e-07
2.50318e-06
9.37061e-07
1.9956e-06
1.00607e-06
1.4701e-06
1.04086e-06
9.52057e-07
1.02346e-06
4.80398e-07
9.15186e-07
1.27578e-07
6.44888e-07
1.74897e-07
-1.1822e-06
1.73953e-06
-2.84858e-06
4.84801e-06
-4.47287e-06
5.18331e-06
-5.73663e-06
4.1563e-06
-6.57066e-06
2.82141e-06
-6.98313e-06
1.48834e-06
-7.03876e-06
3.45948e-07
-6.80087e-06
-5.97705e-07
-6.32945e-06
-1.33683e-06
-5.67555e-06
-1.90812e-06
-4.88728e-06
-2.33018e-06
-4.00484e-06
-2.62511e-06
-3.06427e-06
-2.8077e-06
-2.09749e-06
-2.89021e-06
-1.13267e-06
-2.88366e-06
-1.95301e-07
-2.79829e-06
6.92367e-07
-2.64434e-06
1.51114e-06
-2.43143e-06
2.24519e-06
-2.17035e-06
2.88225e-06
-1.87286e-06
3.41361e-06
-1.55021e-06
3.83403e-06
-1.21358e-06
4.14143e-06
-8.7324e-07
4.33673e-06
-5.37793e-07
4.4234e-06
-2.14192e-07
4.40722e-06
9.2404e-08
4.29418e-06
3.77687e-07
4.09174e-06
6.39045e-07
3.80837e-06
8.7407e-07
3.45376e-06
1.08096e-06
3.03882e-06
1.25744e-06
2.57586e-06
1.40002e-06
2.07947e-06
1.50252e-06
1.56717e-06
1.55313e-06
1.06137e-06
1.5293e-06
5.90055e-07
1.38647e-06
2.04169e-07
1.03081e-06
3.7905e-07
-1.61941e-06
3.35893e-06
-3.29762e-06
6.52621e-06
-4.82857e-06
6.71425e-06
-5.99357e-06
5.32128e-06
-6.74616e-06
3.57398e-06
-7.09746e-06
1.83963e-06
-7.10747e-06
3.55942e-07
-6.83568e-06
-8.69517e-07
-6.341e-06
-1.83151e-06
-5.67324e-06
-2.57588e-06
-4.87835e-06
-3.12508e-06
-3.99484e-06
-3.50862e-06
-3.05722e-06
-3.74532e-06
-2.09594e-06
-3.85149e-06
-1.13792e-06
-3.84166e-06
-2.07558e-07
-3.72866e-06
6.73852e-07
-3.52575e-06
1.48788e-06
-3.24546e-06
2.21925e-06
-2.9017e-06
2.85596e-06
-2.50958e-06
3.38931e-06
-2.08358e-06
3.81379e-06
-1.63805e-06
4.1269e-06
-1.18636e-06
4.32905e-06
-7.39947e-07
4.42315e-06
-3.08283e-07
4.41425e-06
1.01331e-07
4.30859e-06
4.83336e-07
4.11372e-06
8.33912e-07
3.83831e-06
1.14949e-06
3.49226e-06
1.42701e-06
3.08676e-06
1.66295e-06
2.63455e-06
1.85223e-06
2.15038e-06
1.98674e-06
1.65131e-06
2.0522e-06
1.15744e-06
2.0232e-06
6.90408e-07
1.85348e-06
2.82783e-07
1.43846e-06
6.6182e-07
-1.93963e-06
5.29855e-06
-3.6856e-06
8.27216e-06
-5.17109e-06
8.19973e-06
-6.25891e-06
6.40908e-06
-6.93343e-06
4.24848e-06
-7.22009e-06
2.12628e-06
-7.17808e-06
3.13934e-07
-6.86747e-06
-1.18015e-06
-6.34485e-06
-2.35414e-06
-5.65887e-06
-3.26187e-06
-4.85329e-06
-3.93067e-06
-3.96508e-06
-4.39683e-06
-3.02731e-06
-4.68309e-06
-2.06912e-06
-4.80968e-06
-1.1163e-06
-4.79447e-06
-1.92156e-07
-4.65281e-06
6.8295e-07
-4.40086e-06
1.49137e-06
-4.05388e-06
2.21848e-06
-3.6288e-06
2.85267e-06
-3.14377e-06
3.38537e-06
-2.61629e-06
3.81098e-06
-2.06364e-06
4.12674e-06
-1.50212e-06
4.3327e-06
-9.45922e-07
4.43139e-06
-4.06986e-07
4.42752e-06
1.05202e-07
4.32738e-06
5.83472e-07
4.13861e-06
1.02267e-06
3.87005e-06
1.41808e-06
3.53171e-06
1.76538e-06
3.1349e-06
2.05979e-06
2.69241e-06
2.29474e-06
2.21879e-06
2.4604e-06
1.73033e-06
2.54065e-06
1.24516e-06
2.50839e-06
7.81582e-07
2.31705e-06
3.57798e-07
1.86225e-06
1.01961e-06
-2.20952e-06
7.50806e-06
-4.05597e-06
1.01186e-05
-5.52856e-06
9.6723e-06
-6.55203e-06
7.43254e-06
-7.14822e-06
4.84466e-06
-7.36477e-06
2.34282e-06
-7.26412e-06
2.13282e-07
-6.90852e-06
-1.53576e-06
-6.35232e-06
-2.91034e-06
-5.64275e-06
-3.97144e-06
-4.82139e-06
-4.75203e-06
-3.92375e-06
-5.29447e-06
-2.98151e-06
-5.62532e-06
-2.02265e-06
-5.76855e-06
-1.07196e-06
-5.74516e-06
-1.51727e-07
-5.57302e-06
7.1854e-07
-5.27112e-06
1.52199e-06
-4.85733e-06
2.24467e-06
-4.35149e-06
2.87549e-06
-3.77457e-06
3.4061e-06
-3.14692e-06
3.83096e-06
-2.48851e-06
4.14722e-06
-1.81837e-06
4.35471e-06
-1.15341e-06
4.45572e-06
-5.08009e-07
4.45478e-06
1.06149e-07
4.3582e-06
6.80074e-07
4.17372e-06
1.20716e-06
3.9103e-06
1.68151e-06
3.57802e-06
2.09768e-06
3.18816e-06
2.44966e-06
2.75334e-06
2.72954e-06
2.2876e-06
2.92615e-06
1.80624e-06
3.02202e-06
1.32526e-06
2.98934e-06
8.59641e-07
2.78267e-06
4.15498e-07
2.30641e-06
1.43509e-06
-2.47796e-06
9.986e-06
-4.44641e-06
1.2087e-05
-5.92342e-06
1.11493e-05
-6.88523e-06
8.39435e-06
-7.39791e-06
5.35733e-06
-7.5365e-06
2.4814e-06
-7.36996e-06
4.67332e-08
-6.96286e-06
-1.94287e-06
-6.36733e-06
-3.50588e-06
-5.62877e-06
-4.71001e-06
-4.78639e-06
-5.59442e-06
-3.87432e-06
-6.20653e-06
-2.92293e-06
-6.57671e-06
-1.95915e-06
-6.73234e-06
-1.00691e-06
-6.69741e-06
-8.76323e-08
-6.49229e-06
7.79963e-07
-6.13871e-06
1.57978e-06
-5.65715e-06
2.2986e-06
-5.07032e-06
2.92583e-06
-4.4018e-06
3.45353e-06
-3.67459e-06
3.8763e-06
-2.91128e-06
4.19136e-06
-2.13343e-06
4.39845e-06
-1.36049e-06
4.49977e-06
-6.09326e-07
4.49975e-06
1.06169e-07
4.40472e-06
7.75093e-07
4.22253e-06
1.38934e-06
3.96223e-06
1.94181e-06
3.63393e-06
2.42597e-06
3.24875e-06
2.83482e-06
2.81902e-06
3.15929e-06
2.35808e-06
3.38707e-06
1.88004e-06
3.50006e-06
1.39863e-06
3.47071e-06
9.24914e-07
3.25639e-06
4.57718e-07
2.77362e-06
1.89279e-06
-2.78595e-06
1.27719e-05
-4.89174e-06
1.41928e-05
-6.37505e-06
1.26326e-05
-7.26638e-06
9.28569e-06
-7.6845e-06
5.77545e-06
-7.73492e-06
2.53181e-06
-7.49486e-06
-1.9334e-07
-7.03016e-06
-2.40757e-06
-6.39006e-06
-4.14598e-06
-5.61763e-06
-5.48244e-06
-4.74938e-06
-6.46267e-06
-3.81811e-06
-7.13781e-06
-2.85292e-06
-7.54192e-06
-1.87985e-06
-7.70541e-06
-9.22173e-07
-7.65509e-06
-5.70806e-10
-7.41389e-06
8.66888e-07
-7.00619e-06
1.66484e-06
-6.45511e-06
2.38076e-06
-5.78621e-06
3.00462e-06
-5.02566e-06
3.52893e-06
-4.1989e-06
3.94861e-06
-3.33095e-06
4.26105e-06
-2.44585e-06
4.46604e-06
-1.5655e-06
4.56579e-06
-7.09089e-07
4.5647e-06
1.07267e-07
4.46917e-06
8.7064e-07
4.28713e-06
1.57137e-06
4.02772e-06
2.20123e-06
3.70103e-06
2.75268e-06
3.31797e-06
3.21785e-06
2.89047e-06
3.58681e-06
2.43108e-06
3.84644e-06
1.95267e-06
3.97847e-06
1.46684e-06
3.95652e-06
9.8156e-07
3.74167e-06
4.93107e-07
3.26207e-06
2.38589e-06
-3.1756e-06
1.59475e-05
-5.42611e-06
1.64433e-05
-6.89956e-06
1.4106e-05
-7.69844e-06
1.00846e-05
-8.00469e-06
6.0817e-06
-7.95477e-06
2.48188e-06
-7.63384e-06
-5.14278e-07
-7.10658e-06
-2.93484e-06
-6.41795e-06
-4.83461e-06
-5.60785e-06
-6.29256e-06
-4.70972e-06
-7.36081e-06
-3.75501e-06
-8.0925e-06
-2.77169e-06
-8.52526e-06
-1.78511e-06
-8.692e-06
-8.1811e-07
-8.62211e-06
1.09213e-07
-8.34119e-06
9.79282e-07
-7.87624e-06
1.7774e-06
-7.25324e-06
2.49168e-06
-6.50049e-06
3.11267e-06
-5.64664e-06
3.6334e-06
-4.71963e-06
4.04921e-06
-3.74679e-06
4.35779e-06
-2.75442e-06
4.55911e-06
-1.76681e-06
4.65548e-06
-8.05445e-07
4.65133e-06
1.11414e-07
4.55319e-06
9.68838e-07
4.36906e-06
1.7555e-06
4.10814e-06
2.46212e-06
3.78051e-06
3.08034e-06
3.39682e-06
3.60152e-06
2.96853e-06
4.01512e-06
2.5074e-06
4.30755e-06
2.02512e-06
4.46075e-06
1.53151e-06
4.45011e-06
1.03239e-06
4.24081e-06
5.23081e-07
3.77136e-06
2.90898e-06
-3.69536e-06
1.96429e-05
-6.08414e-06
1.88321e-05
-7.50826e-06
1.55302e-05
-8.17771e-06
1.0754e-05
-8.34854e-06
6.25252e-06
-8.18519e-06
2.31852e-06
-7.77746e-06
-9.22014e-07
-7.18483e-06
-3.52748e-06
-6.44579e-06
-5.57364e-06
-5.59591e-06
-7.14243e-06
-4.66522e-06
-8.29152e-06
-3.68374e-06
-9.07397e-06
-2.67857e-06
-9.53045e-06
-1.67459e-06
-9.69595e-06
-6.94523e-07
-9.60219e-06
2.419e-07
-9.27762e-06
1.11742e-06
-8.75176e-06
1.91792e-06
-8.05373e-06
2.63204e-06
-7.21463e-06
3.25088e-06
-6.26549e-06
3.76806e-06
-5.23678e-06
4.1794e-06
-4.15813e-06
4.48302e-06
-3.05804e-06
4.67918e-06
-1.96295e-06
4.77037e-06
-8.96607e-07
4.76118e-06
1.20598e-07
4.65821e-06
1.07181e-06
4.46964e-06
1.9441e-06
4.20468e-06
2.72704e-06
3.87341e-06
3.41164e-06
3.48618e-06
3.98874e-06
3.054e-06
4.44732e-06
2.58787e-06
4.77366e-06
2.09843e-06
4.95022e-06
1.59407e-06
4.95443e-06
1.07924e-06
4.75566e-06
5.49263e-07
4.30131e-06
3.45824e-06
-4.40515e-06
2.4048e-05
-6.90141e-06
2.13283e-05
-8.20459e-06
1.68333e-05
-8.69079e-06
1.12402e-05
-8.69732e-06
6.25904e-06
-8.40829e-06
2.02949e-06
-7.91091e-06
-1.41939e-06
-7.25358e-06
-4.18481e-06
-6.4654e-06
-6.36182e-06
-5.57608e-06
-8.03175e-06
-4.61203e-06
-9.25558e-06
-3.60177e-06
-1.00842e-05
-2.57192e-06
-1.05603e-05
-1.54723e-06
-1.07206e-05
-5.50659e-07
-1.05988e-05
3.98117e-07
-1.02264e-05
1.28196e-06
-9.63562e-06
2.08715e-06
-8.85893e-06
2.80275e-06
-7.93022e-06
3.42037e-06
-6.88311e-06
3.93418e-06
-5.75059e-06
4.34062e-06
-4.56457e-06
4.63828e-06
-3.35568e-06
4.82784e-06
-2.15251e-06
4.91208e-06
-9.8084e-07
4.89578e-06
1.36901e-07
4.78572e-06
1.18189e-06
4.59021e-06
2.13963e-06
4.31857e-06
2.99867e-06
3.98081e-06
3.74945e-06
3.58703e-06
4.38249e-06
3.1478e-06
4.88659e-06
2.67341e-06
5.24801e-06
2.17363e-06
5.45005e-06
1.65584e-06
5.47219e-06
1.12366e-06
5.28786e-06
5.72954e-07
4.852e-06
4.03117e-06
-5.38265e-06
2.94307e-05
-7.91288e-06
2.38586e-05
-8.97866e-06
1.78991e-05
-9.20991e-06
1.14715e-05
-9.02041e-06
6.06954e-06
-8.5972e-06
1.60628e-06
-8.01274e-06
-2.00384e-06
-7.29662e-06
-4.90093e-06
-6.46499e-06
-7.19346e-06
-5.53998e-06
-8.95675e-06
-4.54437e-06
-1.02512e-05
-3.50516e-06
-1.11234e-05
-2.44905e-06
-1.16164e-05
-1.40115e-06
-1.17685e-05
-3.85127e-07
-1.16148e-05
5.78998e-07
-1.11905e-05
1.47398e-06
-1.05306e-05
2.28622e-06
-9.67117e-06
3.00508e-06
-8.64908e-06
3.62253e-06
-7.50058e-06
4.13335e-06
-6.26137e-06
4.53456e-06
-4.96579e-06
4.82536e-06
-3.64648e-06
5.00691e-06
-2.33405e-06
5.0824e-06
-1.05631e-06
5.05688e-06
1.62414e-07
4.93734e-06
1.30146e-06
4.7323e-06
2.3447e-06
4.45117e-06
3.27977e-06
4.10393e-06
4.09672e-06
3.70046e-06
4.78591e-06
3.25093e-06
5.33617e-06
2.76503e-06
5.73386e-06
2.25184e-06
5.96327e-06
1.71803e-06
6.00599e-06
1.16694e-06
5.83896e-06
5.95198e-07
5.42373e-06
4.62638e-06
-6.73376e-06
3.61644e-05
-9.14636e-06
2.62712e-05
-9.79761e-06
1.85503e-05
-9.68591e-06
1.13598e-05
-9.271e-06
5.65463e-06
-8.71323e-06
1.04852e-06
-8.05292e-06
-2.66415e-06
-7.29148e-06
-5.66237e-06
-6.42814e-06
-8.05679e-06
-5.4759e-06
-9.90898e-06
-4.45402e-06
-1.12731e-05
-3.38819e-06
-1.21892e-05
-2.30596e-06
-1.26987e-05