/*--------------------------------*- C++ -*----------------------------------*\
  =========                 |
  \\      /  F ield         | OpenFOAM: The Open Source CFD Toolbox
   \\    /   O peration     | Website:  https://openfoam.org
    \\  /    A nd           | Version:  7
     \\/     M anipulation  |
\*---------------------------------------------------------------------------*/
FoamFile
{
    version     2.0;
    format      ascii;
    class       volVectorField;
    location    "0.35";
    object      U;
}
// * * * * * * * * * * * * * * * * * * * * * * * * * * * * * * * * * * * * * //

dimensions      [0 1 -1 0 0 0 0];

internalField   nonuniform List<vector> 
9072
(
(-0.0355292 0.0129596 0)
(-0.0558195 0.00345358 0)
(-0.047279 -0.00595668 0)
(-0.0237154 -0.00952354 0)
(0.00644628 -0.0104263 0)
(0.0385635 -0.0104911 0)
(0.0704374 -0.0100511 0)
(0.10116 -0.00944056 0)
(0.130341 -0.0088201 0)
(0.157956 -0.00825542 0)
(0.184165 -0.00777265 0)
(0.20919 -0.00737736 0)
(0.233261 -0.00706355 0)
(0.256584 -0.00681994 0)
(0.279334 -0.00663351 0)
(0.301647 -0.00649119 0)
(0.323623 -0.00638059 0)
(0.345326 -0.00629023 0)
(0.366785 -0.00620947 0)
(0.388 -0.00612827 0)
(0.408936 -0.00603686 0)
(0.42953 -0.00592544 0)
(0.449686 -0.00578371 0)
(0.469272 -0.00560047 0)
(0.488116 -0.00536306 0)
(0.506002 -0.0050567 0)
(0.522658 -0.0046637 0)
(0.537749 -0.00416182 0)
(0.550851 -0.00352357 0)
(0.561444 -0.00270099 0)
(0.568736 -0.00164094 0)
(0.572226 9.47057e-05 0)
(0.568846 0.00236551 0)
(0.557056 0.0053678 0)
(0.535148 0.00917603 0)
(0.50088 0.0138156 0)
(0.4517 0.0192665 0)
(0.385311 0.0252148 0)
(0.300556 0.0307414 0)
(0.199441 0.0342978 0)
(0.0863434 0.0345114 0)
(-0.021786 0.036222 0)
(-0.158921 0.0324426 0)
(-0.256568 0.0051599 0)
(-0.238581 -0.0337898 0)
(-0.0997244 -0.0591182 0)
(-0.0328656 0.0289572 0)
(-0.0317223 0.00469786 0)
(-0.0193635 -0.011814 0)
(0.00318862 -0.0195528 0)
(0.0313128 -0.0225373 0)
(0.0616058 -0.0232384 0)
(0.0921748 -0.0227799 0)
(0.122072 -0.0218362 0)
(0.150874 -0.0207615 0)
(0.17848 -0.0197325 0)
(0.204965 -0.0188301 0)
(0.230475 -0.0180809 0)
(0.255175 -0.0174817 0)
(0.279225 -0.0170144 0)
(0.30276 -0.0166547 0)
(0.325889 -0.0163765 0)
(0.34869 -0.0161542 0)
(0.371209 -0.0159632 0)
(0.393465 -0.0157803 0)
(0.415448 -0.0155827 0)
(0.437119 -0.0153481 0)
(0.458408 -0.0150536 0)
(0.479216 -0.0146745 0)
(0.49941 -0.0141839 0)
(0.518817 -0.0135512 0)
(0.537222 -0.0127403 0)
(0.554356 -0.0117083 0)
(0.569891 -0.0104018 0)
(0.583417 -0.0087533 0)
(0.594437 -0.00666342 0)
(0.60235 -0.00400127 0)
(0.606322 -0.000384752 0)
(0.6065 0.0043451 0)
(0.601482 0.0104154 0)
(0.589493 0.0180327 0)
(0.568482 0.0274547 0)
(0.535909 0.0388567 0)
(0.488612 0.0519758 0)
(0.422854 0.0656087 0)
(0.335714 0.0772925 0)
(0.225423 0.083772 0)
(0.10663 0.0870053 0)
(-0.0295981 0.0827256 0)
(-0.131446 0.0395531 0)
(-0.166681 -0.0401746 0)
(-0.0837108 -0.130016 0)
(-0.0190579 0.0394733 0)
(-0.0133661 0.00111905 0)
(0.000236933 -0.0203103 0)
(0.0220826 -0.0308993 0)
(0.0486413 -0.0354307 0)
(0.0773165 -0.0366777 0)
(0.106491 -0.0362043 0)
(0.13529 -0.0349508 0)
(0.163295 -0.0334455 0)
(0.19037 -0.0319665 0)
(0.216538 -0.0306472 0)
(0.241894 -0.0295368 0)
(0.266562 -0.0286374 0)
(0.290663 -0.0279268 0)
(0.314305 -0.0273715 0)
(0.337574 -0.0269343 0)
(0.360532 -0.0265773 0)
(0.383212 -0.0262636 0)
(0.405623 -0.0259576 0)
(0.427749 -0.0256241 0)
(0.449545 -0.0252281 0)
(0.470939 -0.0247331 0)
(0.491829 -0.0241001 0)
(0.512081 -0.023286 0)
(0.531524 -0.0222415 0)
(0.549946 -0.0209095 0)
(0.567083 -0.0192215 0)
(0.582616 -0.0170937 0)
(0.596155 -0.014421 0)
(0.607225 -0.0110653 0)
(0.615268 -0.00684705 0)
(0.619558 -0.00151976 0)
(0.619599 0.00530745 0)
(0.614546 0.0139722 0)
(0.603225 0.0248674 0)
(0.58427 0.0384345 0)
(0.556112 0.0550337 0)
(0.516918 0.0746195 0)
(0.46438 0.0961253 0)
(0.395977 0.116781 0)
(0.308195 0.131862 0)
(0.207522 0.138909 0)
(0.0972814 0.131637 0)
(-0.000289844 0.0772892 0)
(-0.07932 -0.0289753 0)
(-0.0416542 -0.181014 0)
(-0.00593884 0.0441051 0)
(0.00102275 -0.00318279 0)
(0.0158916 -0.0288313 0)
(0.0375201 -0.0421136 0)
(0.0630443 -0.0480928 0)
(0.0904548 -0.0499038 0)
(0.118421 -0.0494747 0)
(0.146188 -0.0479872 0)
(0.173374 -0.0461254 0)
(0.199835 -0.0442609 0)
(0.225566 -0.0425766 0)
(0.250626 -0.0411444 0)
(0.275107 -0.039973 0)
(0.299101 -0.0390378 0)
(0.322692 -0.0382981 0)
(0.345947 -0.0377069 0)
(0.368912 -0.0372153 0)
(0.39161 -0.0367751 0)
(0.414041 -0.036339 0)
(0.436182 -0.0358601 0)
(0.457984 -0.0352909 0)
(0.479371 -0.0345819 0)
(0.50024 -0.0336798 0)
(0.520457 -0.0325256 0)
(0.539851 -0.0310523 0)
(0.558214 -0.029182 0)
(0.575289 -0.0268217 0)
(0.590768 -0.0238589 0)
(0.604275 -0.0201543 0)
(0.615364 -0.0155316 0)
(0.623506 -0.00976758 0)
(0.628058 -0.00258073 0)
(0.628398 0.0064395 0)
(0.623779 0.0177154 0)
(0.613292 0.0317277 0)
(0.595926 0.0489862 0)
(0.57062 0.0699143 0)
(0.536291 0.0945656 0)
(0.491701 0.122043 0)
(0.435444 0.149699 0)
(0.364882 0.172243 0)
(0.28149 0.18426 0)
(0.190353 0.176654 0)
(0.101621 0.118788 0)
(0.00565082 -0.00157008 0)
(0.00423955 -0.196004 0)
(0.00296566 0.0422096 0)
(0.0120287 -0.00842443 0)
(0.028559 -0.037706 0)
(0.0504712 -0.0532414 0)
(0.0754444 -0.0604527 0)
(0.101939 -0.0627802 0)
(0.128914 -0.0624303 0)
(0.155764 -0.0607798 0)
(0.182175 -0.0586418 0)
(0.20802 -0.0564666 0)
(0.233281 -0.0544809 0)
(0.257997 -0.0527776 0)
(0.282233 -0.0513728 0)
(0.306059 -0.050241 0)
(0.329538 -0.0493361 0)
(0.35272 -0.0486028 0)
(0.375637 -0.0479829 0)
(0.398302 -0.047418 0)
(0.420706 -0.04685 0)
(0.44282 -0.0462209 0)
(0.464589 -0.0454715 0)
(0.485937 -0.0445398 0)
(0.506757 -0.0433587 0)
(0.526916 -0.0418541 0)
(0.546245 -0.0399417 0)
(0.56454 -0.0375239 0)
(0.581553 -0.0344849 0)
(0.596984 -0.0306854 0)
(0.610477 -0.0259549 0)
(0.621611 -0.0200823 0)
(0.629891 -0.0128058 0)
(0.634734 -0.00380604 0)
(0.635522 0.00734138 0)
(0.631577 0.0211116 0)
(0.622146 0.0380244 0)
(0.606449 0.058604 0)
(0.583733 0.083266 0)
(0.553325 0.112059 0)
(0.514552 0.144146 0)
(0.466657 0.177039 0)
(0.407899 0.205458 0)
(0.337495 0.222404 0)
(0.258409 0.216142 0)
(0.176102 0.159288 0)
(0.0768561 0.0315717 0)
(0.0421655 -0.178162 0)
(0.00737232 0.0367506 0)
(0.0197641 -0.0152059 0)
(0.0385628 -0.0471405 0)
(0.0612351 -0.064391 0)
(0.0860682 -0.0725363 0)
(0.111955 -0.0752595 0)
(0.138145 -0.0749735 0)
(0.164207 -0.0732002 0)
(0.189915 -0.0708492 0)
(0.215175 -0.0684306 0)
(0.239972 -0.066205 0)
(0.264332 -0.0642826 0)
(0.288304 -0.0626859 0)
(0.311938 -0.0613894 0)
(0.33528 -0.0603425 0)
(0.358363 -0.0594833 0)
(0.381209 -0.0587455 0)
(0.403819 -0.0580616 0)
(0.426178 -0.057364 0)
(0.448248 -0.0565843 0)
(0.469973 -0.0556525 0)
(0.491271 -0.0544946 0)
(0.512037 -0.0530306 0)
(0.532136 -0.0511721 0)
(0.551403 -0.0488187 0)
(0.56964 -0.045854 0)
(0.586604 -0.0421414 0)
(0.602011 -0.037517 0)
(0.615522 -0.0317825 0)
(0.626742 -0.0246961 0)
(0.635211 -0.0159629 0)
(0.640399 -0.00523024 0)
(0.64173 0.00794311 0)
(0.638595 0.0240564 0)
(0.630354 0.0436403 0)
(0.616389 0.0672074 0)
(0.596143 0.0951364 0)
(0.569174 0.127435 0)
(0.535085 0.163287 0)
(0.4934 0.200343 0)
(0.442864 0.233581 0)
(0.381959 0.25524 0)
(0.310948 0.252101 0)
(0.231712 0.199337 0)
(0.131113 0.074033 0)
(0.0696995 -0.143463 0)
(0.00892769 0.0295942 0)
(0.0248958 -0.0236363 0)
(0.0462691 -0.0573561 0)
(0.0700348 -0.0757563 0)
(0.0950313 -0.084496 0)
(0.120553 -0.0874466 0)
(0.146139 -0.087168 0)
(0.171538 -0.0852802 0)
(0.196623 -0.0827562 0)
(0.221346 -0.0801454 0)
(0.245703 -0.0777311 0)
(0.269719 -0.0756352 0)
(0.293428 -0.0738845 0)
(0.316865 -0.072453 0)
(0.340062 -0.0712867 0)
(0.363039 -0.0703178 0)
(0.385805 -0.069473 0)
(0.408353 -0.0686769 0)
(0.430659 -0.0678531 0)
(0.452682 -0.0669239 0)
(0.474359 -0.065809 0)
(0.495607 -0.0644235 0)
(0.51632 -0.0626753 0)
(0.536365 -0.0604623 0)
(0.555581 -0.0576691 0)
(0.573773 -0.0541624 0)
(0.590709 -0.0497859 0)
(0.606119 -0.044354 0)
(0.619683 -0.0376439 0)
(0.631031 -0.0293868 0)
(0.639743 -0.0192599 0)
(0.645335 -0.00688279 0)
(0.647285 0.00820126 0)
(0.645054 0.0265008 0)
(0.638093 0.0485418 0)
(0.625898 0.074812 0)
(0.608043 0.105645 0)
(0.584206 0.141008 0)
(0.554101 0.180097 0)
(0.517327 0.220716 0)
(0.472801 0.258187 0)
(0.418694 0.284611 0)
(0.353311 0.286357 0)
(0.275087 0.240416 0)
(0.172408 0.122495 0)
(0.0897854 -0.0934485 0)
(0.00930849 0.021449 0)
(0.0283103 -0.0335818 0)
(0.052149 -0.0684482 0)
(0.0771287 -0.0874623 0)
(0.102458 -0.0964503 0)
(0.127778 -0.0994401 0)
(0.152899 -0.0990899 0)
(0.177744 -0.0970751 0)
(0.202286 -0.094401 0)
(0.226527 -0.0916362 0)
(0.250483 -0.0890749 0)
(0.274176 -0.0868445 0)
(0.297635 -0.0849734 0)
(0.320883 -0.0834342 0)
(0.343939 -0.0821692 0)
(0.366811 -0.081106 0)
(0.389497 -0.0801647 0)
(0.411982 -0.079263 0)
(0.434235 -0.0783167 0)
(0.45621 -0.0772394 0)
(0.47784 -0.0759416 0)
(0.499042 -0.074328 0)
(0.519708 -0.0722952 0)
(0.539707 -0.0697288 0)
(0.558882 -0.0664991 0)
(0.577045 -0.0624573 0)
(0.593974 -0.0574296 0)
(0.609412 -0.051211 0)
(0.623062 -0.0435571 0)
(0.634581 -0.0341763 0)
(0.643584 -0.0227225 0)
(0.649636 -0.00879293 0)
(0.652272 0.00808122 0)
(0.651016 0.0284104 0)
(0.645398 0.0527084 0)
(0.635 0.0814337 0)
(0.619477 0.114879 0)
(0.598567 0.15298 0)
(0.572007 0.194968 0)
(0.539353 0.238814 0)
(0.499507 0.280229 0)
(0.450365 0.311568 0)
(0.388854 0.31943 0)
(0.310533 0.282502 0)
(0.204969 0.175823 0)
(0.105195 -0.0321254 0)
(0.00937605 0.0126863 0)
(0.0307206 -0.0447882 0)
(0.0566789 -0.0803732 0)
(0.082801 -0.0995407 0)
(0.108499 -0.108456 0)
(0.1337 -0.111301 0)
(0.158448 -0.110794 0)
(0.182824 -0.10863 0)
(0.206896 -0.105818 0)
(0.230711 -0.102929 0)
(0.254306 -0.100255 0)
(0.277708 -0.0979236 0)
(0.300938 -0.0959616 0)
(0.32401 -0.0943389 0)
(0.346933 -0.0929945 0)
(0.369706 -0.0918509 0)
(0.392316 -0.090823 0)
(0.414741 -0.0898221 0)
(0.436944 -0.0887569 0)
(0.458874 -0.0875332 0)
(0.480461 -0.086053 0)
(0.50162 -0.0842114 0)
(0.522244 -0.0818948 0)
(0.542205 -0.0789771 0)
(0.56135 -0.0753158 0)
(0.579497 -0.0707478 0)
(0.596437 -0.0650838 0)
(0.611928 -0.0581018 0)
(0.625692 -0.0495392 0)
(0.637417 -0.0390852 0)
(0.646755 -0.0263746 0)
(0.653317 -0.0109874 0)
(0.656693 0.0075539 0)
(0.656468 0.0297578 0)
(0.652241 0.0561231 0)
(0.643658 0.0870804 0)
(0.63043 0.12289 0)
(0.612317 0.163475 0)
(0.589034 0.208127 0)
(0.560051 0.255011 0)
(0.524155 0.300264 0)
(0.478931 0.336757 0)
(0.420291 0.35182 0)
(0.341453 0.325825 0)
(0.232422 0.233664 0)
(0.117695 0.0397894 0)
(0.00943608 0.003486 0)
(0.0325979 -0.0569884 0)
(0.0602595 -0.0930047 0)
(0.0873234 -0.111951 0)
(0.11332 -0.120519 0)
(0.138409 -0.123055 0)
(0.162832 -0.122314 0)
(0.186802 -0.119978 0)
(0.210463 -0.117038 0)
(0.233905 -0.114047 0)
(0.257181 -0.111289 0)
(0.280323 -0.108886 0)
(0.303348 -0.106859 0)
(0.326262 -0.105174 0)
(0.349065 -0.103767 0)
(0.371746 -0.102556 0)
(0.394285 -0.10145 0)
(0.416654 -0.100356 0)
(0.438809 -0.099175 0)
(0.460695 -0.0978067 0)
(0.482241 -0.0961448 0)
(0.503361 -0.0940761 0)
(0.523947 -0.0914771 0)
(0.543876 -0.0882112 0)
(0.562998 -0.0841243 0)
(0.581141 -0.0790407 0)
(0.598106 -0.0727574 0)
(0.613667 -0.0650378 0)
(0.62757 -0.0556042 0)
(0.63953 -0.0441304 0)
(0.649237 -0.0302361 0)
(0.656349 -0.0134884 0)
(0.660509 0.00659585 0)
(0.66136 0.0305215 0)
(0.658559 0.0587726 0)
(0.651805 0.0917557 0)
(0.64085 0.12971 0)
(0.625461 0.172566 0)
(0.605319 0.219696 0)
(0.579802 0.269495 0)
(0.547553 0.318566 0)
(0.505843 0.360497 0)
(0.449793 0.383722 0)
(0.370634 0.370416 0)
(0.258266 0.295638 0)
(0.130073 0.12138 0)
(0.00959605 -0.00609843 0)
(0.0342275 -0.0699624 0)
(0.0631881 -0.106186 0)
(0.0909259 -0.124609 0)
(0.117081 -0.132606 0)
(0.142015 -0.134705 0)
(0.166125 -0.133669 0)
(0.189727 -0.131145 0)
(0.213024 -0.128083 0)
(0.236138 -0.125011 0)
(0.259134 -0.122195 0)
(0.282046 -0.119744 0)
(0.304889 -0.117674 0)
(0.327661 -0.115946 0)
(0.350354 -0.114492 0)
(0.372951 -0.113224 0)
(0.395425 -0.112048 0)
(0.41774 -0.110865 0)
(0.439848 -0.109572 0)
(0.461691 -0.10806 0)
(0.483197 -0.106218 0)
(0.504277 -0.103923 0)
(0.524827 -0.101043 0)
(0.544726 -0.0974334 0)
(0.563829 -0.0929282 0)
(0.581975 -0.087341 0)
(0.598974 -0.0804568 0)
(0.614618 -0.0720272 0)
(0.628675 -0.0617626 0)
(0.640891 -0.0493249 0)
(0.650992 -0.0343226 0)
(0.658684 -0.0163133 0)
(0.663659 0.00518927 0)
(0.665618 0.0306855 0)
(0.664267 0.0606466 0)
(0.659356 0.0954601 0)
(0.650664 0.135354 0)
(0.637969 0.180282 0)
(0.620929 0.229721 0)
(0.59885 0.282319 0)
(0.570261 0.335196 0)
(0.532162 0.382807 0)
(0.47907 0.415002 0)
(0.400394 0.416005 0)
(0.285538 0.361312 0)
(0.143919 0.211612 0)
(0.00990071 -0.0160735 0)
(0.0357704 -0.0835415 0)
(0.0656635 -0.119758 0)
(0.0937857 -0.137409 0)
(0.119927 -0.144665 0)
(0.144629 -0.146235 0)
(0.168415 -0.144865 0)
(0.19167 -0.142145 0)
(0.214639 -0.138974 0)
(0.23746 -0.13584 0)
(0.260209 -0.132988 0)
(0.282918 -0.130511 0)
(0.305597 -0.128417 0)
(0.328241 -0.126662 0)
(0.350834 -0.125172 0)
(0.373352 -0.123857 0)
(0.395762 -0.122618 0)
(0.418022 -0.121351 0)
(0.440082 -0.119947 0)
(0.461879 -0.118293 0)
(0.48334 -0.116271 0)
(0.504378 -0.113751 0)
(0.524889 -0.110594 0)
(0.544756 -0.106644 0)
(0.563842 -0.101729 0)
(0.58199 -0.0956504 0)
(0.599027 -0.088185 0)
(0.614759 -0.0790745 0)
(0.628978 -0.0680205 0)
(0.64146 -0.0546767 0)
(0.65197 -0.038644 0)
(0.660259 -0.0194735 0)
(0.666069 0.00332228 0)
(0.669154 0.0302395 0)
(0.669269 0.0617386 0)
(0.666205 0.0981927 0)
(0.659776 0.139826 0)
(0.649777 0.186627 0)
(0.635864 0.238191 0)
(0.617323 0.293439 0)
(0.592635 0.350044 0)
(0.558636 0.403453 0)
(0.509462 0.445208 0)
(0.432785 0.461982 0)
(0.317499 0.430365 0)
(0.161435 0.312586 0)
(0.0103746 -0.0264808 0)
(0.0373093 -0.0975928 0)
(0.0678059 -0.133568 0)
(0.0960301 -0.150237 0)
(0.12198 -0.156633 0)
(0.146367 -0.157619 0)
(0.169805 -0.155901 0)
(0.192724 -0.152991 0)
(0.215387 -0.149724 0)
(0.237944 -0.146548 0)
(0.260469 -0.143679 0)
(0.282994 -0.141195 0)
(0.305525 -0.139094 0)
(0.328049 -0.137325 0)
(0.350547 -0.135811 0)
(0.372986 -0.134456 0)
(0.39533 -0.133159 0)
(0.417531 -0.13181 0)
(0.439536 -0.130298 0)
(0.46128 -0.128503 0)
(0.48269 -0.126302 0)
(0.503677 -0.123558 0)
(0.524142 -0.120125 0)
(0.543971 -0.115841 0)
(0.563032 -0.110524 0)
(0.581179 -0.103969 0)
(0.59825 -0.0959424 0)
(0.614068 -0.0861808 0)
(0.628448 -0.0743799 0)
(0.641196 -0.060189 0)
(0.652117 -0.0432047 0)
(0.661008 -0.0229745 0)
(0.667659 0.000989156 0)
(0.671875 0.0291786 0)
(0.673458 0.0620458 0)
(0.67224 0.0999526 0)
(0.668073 0.143124 0)
(0.660784 0.191588 0)
(0.650063 0.24506 0)
(0.635237 0.302742 0)
(0.614843 0.362877 0)
(0.58573 0.421989 0)
(0.541966 0.473569 0)
(0.469671 0.507261 0)
(0.357956 0.502215 0)
(0.185572 0.427348 0)
(0.0110412 -0.0373796 0)
(0.0388769 -0.111995 0)
(0.0696777 -0.147473 0)
(0.0977466 -0.16299 0)
(0.123346 -0.16845 0)
(0.147341 -0.168835 0)
(0.170406 -0.166774 0)
(0.192992 -0.163689 0)
(0.215366 -0.160347 0)
(0.237676 -0.157148 0)
(0.259994 -0.154281 0)
(0.282347 -0.151806 0)
(0.304736 -0.149712 0)
(0.327143 -0.147941 0)
(0.349543 -0.146411 0)
(0.371899 -0.145023 0)
(0.394168 -0.143672 0)
(0.416301 -0.142245 0)
(0.43824 -0.140625 0)
(0.45992 -0.13869 0)
(0.481264 -0.13631 0)
(0.502189 -0.133344 0)
(0.522595 -0.129639 0)
(0.542372 -0.125026 0)
(0.561398 -0.119316 0)
(0.579533 -0.112297 0)
(0.596627 -0.103731 0)
(0.612521 -0.093348 0)
(0.62705 -0.0808429 0)
(0.640053 -0.0658641 0)
(0.651375 -0.0480074 0)
(0.660858 -0.0268189 0)
(0.668342 -0.00181179 0)
(0.67368 0.0275031 0)
(0.676718 0.061571 0)
(0.677334 0.100744 0)
(0.67542 0.145248 0)
(0.670854 0.195146 0)
(0.6634 0.250269 0)
(0.652495 0.310083 0)
(0.63686 0.37339 0)
(0.613604 0.437814 0)
(0.577174 0.498989 0)
(0.512685 0.550094 0)
(0.411458 0.575906 0)
(0.220462 0.562164 0)
(0.0119337 -0.0488089 0)
(0.040473 -0.126632 0)
(0.0712998 -0.161345 0)
(0.0989956 -0.175577 0)
(0.124116 -0.180067 0)
(0.147662 -0.17986 0)
(0.170338 -0.17748 0)
(0.192592 -0.174244 0)
(0.214686 -0.170848 0)
(0.236759 -0.167646 0)
(0.258877 -0.164797 0)
(0.281061 -0.162347 0)
(0.303306 -0.160272 0)
(0.325591 -0.158509 0)
(0.347884 -0.156971 0)
(0.370144 -0.155555 0)
(0.392325 -0.154153 0)
(0.414373 -0.152649 0)
(0.436229 -0.150923 0)
(0.457825 -0.148848 0)
(0.479086 -0.14629 0)
(0.499928 -0.143103 0)
(0.520256 -0.139129 0)
(0.539964 -0.134192 0)
(0.558935 -0.128099 0)
(0.57704 -0.120631 0)
(0.59414 -0.111546 0)
(0.610089 -0.100571 0)
(0.624747 -0.0874036 0)
(0.637983 -0.0716956 0)
(0.649682 -0.0530454 0)
(0.659733 -0.0309998 0)
(0.668026 -0.00507297 0)
(0.674459 0.0252222 0)
(0.678926 0.0603252 0)
(0.681345 0.100578 0)
(0.681659 0.146203 0)
(0.679814 0.19729 0)
(0.67568 0.253763 0)
(0.668879 0.315314 0)
(0.658452 0.381245 0)
(0.642064 0.450212 0)
(0.615119 0.520007 0)
(0.562977 0.587717 0)
(0.483551 0.649749 0)
(0.272163 0.718984 0)
(0.0130487 -0.0607763 0)
(0.042063 -0.141445 0)
(0.0726579 -0.175092 0)
(0.0998189 -0.187932 0)
(0.124381 -0.191446 0)
(0.147447 -0.190675 0)
(0.169729 -0.188006 0)
(0.191656 -0.184646 0)
(0.213476 -0.181218 0)
(0.235315 -0.178031 0)
(0.257232 -0.175216 0)
(0.279242 -0.172802 0)
(0.301336 -0.170756 0)
(0.323487 -0.169008 0)
(0.345658 -0.167467 0)
(0.367806 -0.166026 0)
(0.389879 -0.164575 0)
(0.411822 -0.162995 0)
(0.433572 -0.161162 0)
(0.455062 -0.158946 0)
(0.476217 -0.15621 0)
(0.496954 -0.152803 0)
(0.51718 -0.148562 0)
(0.536796 -0.143308 0)
(0.55569 -0.136841 0)
(0.573743 -0.128938 0)
(0.590825 -0.119353 0)
(0.606805 -0.107815 0)
(0.621563 -0.094027 0)
(0.635 -0.0776487 0)
(0.64704 -0.0582855 0)
(0.657623 -0.0354873 0)
(0.666687 -0.00876865 0)
(0.674176 0.0223572 0)
(0.680026 0.0583245 0)
(0.684199 0.0994631 0)
(0.686692 0.145986 0)
(0.687531 0.197989 0)
(0.686723 0.255456 0)
(0.68413 0.318242 0)
(0.679237 0.386027 0)
(0.670559 0.458272 0)
(0.655075 0.534552 0)
(0.620912 0.615483 0)
(0.574525 0.713353 0)
(0.343206 0.928046 0)
(0.0118325 -0.00184014 0)
(-0.00994576 0.00921592 0)
(-0.0559295 0.0115043 0)
(-0.0939495 0.00978142 0)
(-0.123305 0.00689984 0)
(-0.141932 0.00377952 0)
(-0.15067 0.000927816 0)
(-0.150636 -0.00131405 0)
(-0.143709 -0.00309316 0)
(-0.131678 -0.00439295 0)
(-0.115783 -0.00534985 0)
(-0.0970847 -0.00600856 0)
(-0.0765288 -0.00640976 0)
(-0.0549571 -0.00658054 0)
(-0.0331137 -0.00654207 0)
(-0.0116591 -0.00632495 0)
(0.00883506 -0.00594967 0)
(0.0278696 -0.0054361 0)
(0.045034 -0.00481752 0)
(0.0600186 -0.00412586 0)
(0.0725945 -0.00338786 0)
(0.0826283 -0.00262887 0)
(0.0900726 -0.0018719 0)
(0.0949541 -0.00113429 0)
(0.0973639 -0.000420398 0)
(0.0973652 0.00023002 0)
(0.0951064 0.000851572 0)
(0.0908558 0.00138959 0)
(0.0848161 0.00185207 0)
(0.0771926 0.00224749 0)
(0.0681957 0.00257724 0)
(0.0580429 0.0028397 0)
(0.046979 0.00302471 0)
(0.0353232 0.00310443 0)
(0.0235175 0.00301047 0)
(0.0125355 0.00256624 0)
(0.00308013 0.00151677 0)
(-0.00063503 5.01341e-05 0)
(-0.00166113 0.000958615 0)
(-0.0287581 0.0228658 0)
(-0.0749193 0.0264701 0)
(-0.111184 0.0218892 0)
(-0.137617 0.0153071 0)
(-0.153023 0.0085528 0)
(-0.159015 0.00262131 0)
(-0.157322 -0.0022582 0)
(-0.149569 -0.00608774 0)
(-0.13681 -0.00901523 0)
(-0.12034 -0.0111893 0)
(-0.101139 -0.0127085 0)
(-0.0801364 -0.0136535 0)
(-0.058138 -0.0140837 0)
(-0.0358564 -0.014052 0)
(-0.013929 -0.0136172 0)
(0.0070728 -0.0128327 0)
(0.0266586 -0.0117492 0)
(0.0444174 -0.0104285 0)
(0.0600242 -0.00893524 0)
(0.0732415 -0.00732816 0)
(0.083919 -0.00566487 0)
(0.0919864 -0.00399658 0)
(0.0974486 -0.00236388 0)
(0.100368 -0.000792377 0)
(0.100897 0.000683138 0)
(0.0991816 0.00206112 0)
(0.0953452 0.00330635 0)
(0.0895711 0.00441882 0)
(0.0820627 0.00539824 0)
(0.0730437 0.00623814 0)
(0.0627602 0.00692578 0)
(0.0514947 0.00743057 0)
(0.0395999 0.00768563 0)
(0.0275231 0.00754417 0)
(0.0161241 0.00668201 0)
(0.00572744 0.00455454 0)
(0.000539689 0.000999254 0)
(-0.0127197 0.00957119 0)
(-0.043791 0.0388481 0)
(-0.085822 0.0426072 0)
(-0.119063 0.0344473 0)
(-0.143126 0.0235416 0)
(-0.156915 0.0126048 0)
(-0.16186 0.00319712 0)
(-0.159385 -0.00456792 0)
(-0.151018 -0.0106447 0)
(-0.137861 -0.0153378 0)
(-0.121183 -0.0188094 0)
(-0.101897 -0.0212371 0)
(-0.0809046 -0.0227432 0)
(-0.058972 -0.0234264 0)
(-0.0367791 -0.0233765 0)
(-0.0149339 -0.0226801 0)
(0.00600993 -0.0214211 0)
(0.0255803 -0.0196789 0)
(0.0433796 -0.0175437 0)
(0.0590842 -0.0151133 0)
(0.0724573 -0.012481 0)
(0.0833413 -0.00973942 0)
(0.0916524 -0.0069733 0)
(0.09738 -0.0042529 0)
(0.100573 -0.00163371 0)
(0.101345 0.000844929 0)
(0.099835 0.00314729 0)
(0.096191 0.0052521 0)
(0.090596 0.00714268 0)
(0.0832575 0.00880733 0)
(0.0744093 0.0102296 0)
(0.0643147 0.011383 0)
(0.0532764 0.012217 0)
(0.041659 0.0126301 0)
(0.0298889 0.0124213 0)
(0.0186832 0.0111791 0)
(0.00806498 0.00807031 0)
(0.00182477 0.00257979 0)
(-0.0216061 0.024604 0)
(-0.0552971 0.0550979 0)
(-0.0949023 0.0578825 0)
(-0.125928 0.0461826 0)
(-0.147922 0.0312137 0)
(-0.160142 0.0162873 0)
(-0.163891 0.00351383 0)
(-0.160531 -0.00704883 0)
(-0.15151 -0.0153297 0)
(-0.137938 -0.0217396 0)
(-0.121034 -0.0264724 0)
(-0.101666 -0.0297803 0)
(-0.0806998 -0.0318272 0)
(-0.0588679 -0.0327517 0)
(-0.0368198 -0.0326782 0)
(-0.0151346 -0.0317184 0)
(0.00565566 -0.0299863 0)
(0.0250995 -0.0275892 0)
(0.0428148 -0.0246471 0)
(0.0584857 -0.021291 0)
(0.0718794 -0.0176471 0)
(0.0828347 -0.0138406 0)
(0.0912595 -0.0099875 0)
(0.0971325 -0.00618599 0)
(0.100492 -0.00251662 0)
(0.101432 0.000960622 0)
(0.100085 0.00419779 0)
(0.09661 0.00716547 0)
(0.0911907 0.0098358 0)
(0.0840388 0.012186 0)
(0.0753941 0.0141885 0)
(0.0655281 0.0158014 0)
(0.0547515 0.0169542 0)
(0.0434283 0.0175178 0)
(0.0319606 0.0172551 0)
(0.0209585 0.0157175 0)
(0.0103354 0.0119062 0)
(0.00326656 0.00483392 0)
(-0.0274579 0.0418171 0)
(-0.0646229 0.0717096 0)
(-0.103363 0.0724825 0)
(-0.132897 0.0571073 0)
(-0.152998 0.038154 0)
(-0.16362 0.0194042 0)
(-0.166024 0.00337769 0)
(-0.16165 -0.0098574 0)
(-0.151866 -0.0202528 0)
(-0.137782 -0.0282962 0)
(-0.120552 -0.0342279 0)
(-0.101017 -0.0383678 0)
(-0.0800008 -0.0409183 0)
(-0.0582081 -0.0420575 0)
(-0.0362601 -0.0419429 0)
(-0.0147089 -0.0407113 0)
(0.00593478 -0.0385051 0)
(0.0252402 -0.0354593 0)
(0.0428419 -0.0317234 0)
(0.0584349 -0.0274592 0)
(0.0717932 -0.0228232 0)
(0.0827553 -0.0179697 0)
(0.0912247 -0.0130441 0)
(0.0971728 -0.0081716 0)
(0.100629 -0.00345683 0)
(0.10168 0.00101852 0)
(0.100452 0.00519306 0)
(0.0971073 0.00902435 0)
(0.0918345 0.0124733 0)
(0.084848 0.0155051 0)
(0.0763901 0.0180801 0)
(0.066735 0.0201416 0)
(0.0561923 0.0216013 0)
(0.0451165 0.0223093 0)
(0.0338837 0.022007 0)
(0.0230077 0.0202367 0)
(0.0124738 0.0159689 0)
(0.00462893 0.00787353 0)
(-0.0318383 0.0619071 0)
(-0.0730829 0.0891025 0)
(-0.111933 0.0868064 0)
(-0.140477 0.0673535 0)
(-0.158742 0.0443387 0)
(-0.167678 0.0218696 0)
(-0.168578 0.00270416 0)
(-0.163042 -0.0130744 0)
(-0.152363 -0.0254763 0)
(-0.137642 -0.0350591 0)
(-0.119968 -0.0421152 0)
(-0.100154 -0.0470277 0)
(-0.0789836 -0.050036 0)
(-0.057138 -0.0513556 0)
(-0.035212 -0.0511756 0)
(-0.0137337 -0.0496576 0)
(0.00680597 -0.0469719 0)
(0.0259962 -0.0432796 0)
(0.0434886 -0.0387591 0)
(0.0589911 -0.0336005 0)
(0.072287 -0.0279883 0)
(0.0832171 -0.0221038 0)
(0.0916843 -0.0161193 0)
(0.0976565 -0.0101864 0)
(0.101158 -0.00443361 0)
(0.102269 0.0010359 0)
(0.101113 0.00614387 0)
(0.0978568 0.0108336 0)
(0.0926905 0.0150544 0)
(0.0858314 0.0187597 0)
(0.0775228 0.0218977 0)
(0.0680366 0.0243984 0)
(0.0576759 0.0261588 0)
(0.0467791 0.0270137 0)
(0.0356913 0.0266933 0)
(0.0248296 0.0247466 0)
(0.0142762 0.0202061 0)
(0.00547803 0.0118297 0)
(-0.0358999 0.0846669 0)
(-0.0817471 0.107587 0)
(-0.121242 0.101117 0)
(-0.149029 0.0770065 0)
(-0.16536 0.0497455 0)
(-0.172442 0.0236179 0)
(-0.171659 0.00142509 0)
(-0.164803 -0.0167626 0)
(-0.153093 -0.0310557 0)
(-0.137609 -0.0420792 0)
(-0.119368 -0.0501825 0)
(-0.0991603 -0.0558042 0)
(-0.077725 -0.0592204 0)
(-0.0557241 -0.0606815 0)
(-0.0337291 -0.0604063 0)
(-0.0122475 -0.0585808 0)
(0.0082465 -0.0554028 0)
(0.0273614 -0.0510585 0)
(0.0447655 -0.0457547 0)
(0.0601806 -0.0397081 0)
(0.0734012 -0.033129 0)
(0.0842738 -0.0262245 0)
(0.0927033 -0.0191917 0)
(0.0986579 -0.0122077 0)
(0.102159 -0.00542447 0)
(0.103285 0.00103333 0)
(0.102156 0.00706877 0)
(0.0989418 0.0126103 0)
(0.093836 0.0175949 0)
(0.0870577 0.0219652 0)
(0.078849 0.0256583 0)
(0.0694775 0.0285924 0)
(0.0592356 0.0306529 0)
(0.0484406 0.0316655 0)
(0.0374034 0.0313587 0)
(0.0264491 0.0293022 0)
(0.0156875 0.02463 0)
(0.00600177 0.0161935 0)
(-0.0405123 0.110192 0)
(-0.0916226 0.127353 0)
(-0.131866 0.115516 0)
(-0.15883 0.0860451 0)
(-0.172943 0.0543002 0)
(-0.177917 0.0245633 0)
(-0.175253 -0.000531159 0)
(-0.166919 -0.0209826 0)
(-0.154056 -0.0370442 0)
(-0.137695 -0.0494057 0)
(-0.118778 -0.058478 0)
(-0.0980657 -0.0647442 0)
(-0.0762566 -0.0685165 0)
(-0.053997 -0.0700766 0)
(-0.0318376 -0.0696716 0)
(-0.0102704 -0.0675116 0)
(0.0102445 -0.063821 0)
(0.0293333 -0.0588114 0)
(0.0466799 -0.0527176 0)
(0.0620204 -0.0457814 0)
(0.0751621 -0.038238 0)
(0.0859593 -0.0303186 0)
(0.0943228 -0.0222444 0)
(0.100223 -0.0142162 0)
(0.103684 -0.00640907 0)
(0.104779 0.001031 0)
(0.103631 0.00798769 0)
(0.100412 0.0143742 0)
(0.0953175 0.0201154 0)
(0.0885676 0.0251432 0)
(0.0804026 0.0293856 0)
(0.071084 0.0327509 0)
(0.0608915 0.0351157 0)
(0.0501197 0.0363025 0)
(0.0390443 0.0360475 0)
(0.0279145 0.0339527 0)
(0.0168391 0.0292651 0)
(0.00648926 0.0207392 0)
(-0.0465099 0.139067 0)
(-0.103757 0.148521 0)
(-0.144337 0.129944 0)
(-0.170055 0.0943245 0)
(-0.181457 0.057866 0)
(-0.183986 0.024596 0)
(-0.179236 -0.00323928 0)
(-0.169289 -0.0257898 0)
(-0.155179 -0.0434883 0)
(-0.137855 -0.0570822 0)
(-0.118173 -0.0670461 0)
(-0.0968628 -0.073892 0)
(-0.0745815 -0.0779682 0)
(-0.0519645 -0.0795827 0)
(-0.0295467 -0.0790093 0)
(-0.00780978 -0.0764825 0)
(0.0127962 -0.0722526 0)
(0.031914 -0.0665575 0)
(0.0492405 -0.0596593 0)
(0.0645263 -0.0518245 0)
(0.0775919 -0.0433124 0)
(0.0883021 -0.0343774 0)
(0.0965756 -0.0252636 0)
(0.102389 -0.0161949 0)
(0.105769 -0.0073685 0)
(0.106791 0.00104883 0)
(0.105579 0.00892133 0)
(0.102305 0.0161463 0)
(0.0971686 0.0226376 0)
(0.0903905 0.0283174 0)
(0.0822085 0.0331054 0)
(0.0728765 0.0369026 0)
(0.0626612 0.0395798 0)
(0.0518348 0.0409605 0)
(0.0406404 0.0407962 0)
(0.0292688 0.0387278 0)
(0.0178289 0.0341102 0)
(0.00689144 0.0256698 0)
(-0.0548343 0.172339 0)
(-0.119313 0.171114 0)
(-0.15911 0.144146 0)
(-0.182736 0.101562 0)
(-0.190708 0.0602429 0)
(-0.190392 0.0235895 0)
(-0.183369 -0.00676742 0)
(-0.171723 -0.0312253 0)
(-0.156321 -0.0504194 0)
(-0.137993 -0.0651397 0)
(-0.117492 -0.0759211 0)
(-0.0955135 -0.0832857 0)
(-0.0726787 -0.087615 0)
(-0.049616 -0.0892392 0)
(-0.0268512 -0.0884559 0)
(-0.00486228 -0.085526 0)
(0.0159063 -0.0807241 0)
(0.0351117 -0.0743171 0)
(0.0524604 -0.0665937 0)
(0.0677164 -0.0578441 0)
(0.0807142 -0.0483522 0)
(0.0913302 -0.0383948 0)
(0.0994936 -0.0282382 0)
(0.10519 -0.0181285 0)
(0.108451 -0.00828441 0)
(0.109357 0.00110675 0)
(0.108031 0.00989075 0)
(0.104652 0.0179491 0)
(0.0994183 0.025185 0)
(0.0925526 0.0315126 0)
(0.0842892 0.0368448 0)
(0.0748747 0.0410769 0)
(0.0645629 0.0440771 0)
(0.0536055 0.045673 0)
(0.0422177 0.0456356 0)
(0.030548 0.0436471 0)
(0.0187093 0.0391561 0)
(0.00722942 0.0308845 0)
(-0.0666472 0.211562 0)
(-0.139647 0.194975 0)
(-0.176509 0.157595 0)
(-0.196678 0.107315 0)
(-0.200286 0.0611708 0)
(-0.196697 0.0214144 0)
(-0.187274 -0.0111638 0)
(-0.173923 -0.0373038 0)
(-0.157264 -0.0578445 0)
(-0.137952 -0.0735901 0)
(-0.116629 -0.085123 0)
(-0.0939478 -0.0929538 0)
(-0.0705032 -0.0974905 0)
(-0.0469223 -0.0990817 0)
(-0.0237314 -0.0980459 0)
(-0.00141316 -0.0946731 0)
(0.0195886 -0.0892623 0)
(0.0389418 -0.0821113 0)
(0.0563584 -0.0735354 0)
(0.0716142 -0.0638487 0)
(0.0845566 -0.0533593 0)
(0.0950753 -0.0423669 0)
(0.103112 -0.031159 0)
(0.108662 -0.0200033 0)
(0.111767 -0.00913947 0)
(0.112512 0.0012252 0)
(0.111024 0.0109183 0)
(0.107484 0.0198066 0)
(0.102096 0.027783 0)
(0.0950799 0.0347555 0)
(0.0866683 0.0406321 0)
(0.0770999 0.0453041 0)
(0.0666167 0.0486389 0)
(0.0554534 0.0504714 0)
(0.0438023 0.0505931 0)
(0.0317833 0.0487272 0)
(0.01952 0.0444019 0)
(0.00752652 0.0363356 0)
(-0.0834762 0.259085 0)
(-0.166356 0.219595 0)
(-0.196611 0.169382 0)
(-0.21134 0.110963 0)
(-0.20947 0.0603439 0)
(-0.20223 0.0179601 0)
(-0.190398 -0.016437 0)
(-0.175466 -0.0439988 0)
(-0.157694 -0.0657336 0)
(-0.137509 -0.0824169 0)
(-0.115428 -0.0946499 0)
(-0.0920584 -0.10291 0)
(-0.0679821 -0.107619 0)
(-0.0438331 -0.109141 0)
(-0.0201514 -0.107812 0)
(0.00256525 -0.103954 0)
(0.0238678 -0.0978935 0)
(0.0434289 -0.0899613 0)
(0.0609614 -0.0804995 0)
(0.0762495 -0.069847 0)
(0.0891529 -0.0583369 0)
(0.0995747 -0.0462913 0)
(0.10747 -0.0340184 0)
(0.112848 -0.0218067 0)
(0.115759 -0.0099168 0)
(0.116297 0.00142486 0)
(0.114595 0.0120278 0)
(0.110839 0.0217444 0)
(0.105233 0.0304587 0)
(0.098002 0.0380745 0)
(0.0893725 0.0444967 0)
(0.0795766 0.0496151 0)
(0.0688462 0.0532968 0)
(0.0574021 0.0553857 0)
(0.0454198 0.0556944 0)
(0.0330029 0.0539836 0)
(0.0202925 0.0498499 0)
(0.00780129 0.0420075 0)
(-0.107494 0.317358 0)
(-0.201267 0.24402 0)
(-0.219031 0.178127 0)
(-0.225635 0.111729 0)
(-0.217115 0.0574467 0)
(-0.206007 0.0131678 0)
(-0.191959 -0.0225313 0)
(-0.17576 -0.0512238 0)
(-0.157174 -0.0740067 0)
(-0.136349 -0.0915642 0)
(-0.113668 -0.10447 0)
(-0.0896913 -0.113146 0)
(-0.0650088 -0.11801 0)
(-0.0402736 -0.119438 0)
(-0.0160564 -0.117781 0)
(0.00711579 -0.113399 0)
(0.0287812 -0.106645 0)
(0.0486084 -0.0978898 0)
(0.0663053 -0.0875028 0)
(0.0816609 -0.0758495 0)
(0.0945446 -0.0632892 0)
(0.104873 -0.0501667 0)
(0.112615 -0.0368103 0)
(0.117795 -0.0235283 0)
(0.120476 -0.0106012 0)
(0.120761 0.00172506 0)
(0.11879 0.0132424 0)
(0.114756 0.0237887 0)
(0.10887 0.0332404 0)
(0.101354 0.0414993 0)
(0.0924336 0.0484697 0)
(0.0823339 0.0540413 0)
(0.0712787 0.0580824 0)
(0.0594783 0.0604457 0)
(0.047097 0.0609643 0)
(0.0342331 0.0594316 0)
(0.021053 0.0555043 0)