/*--------------------------------*- C++ -*----------------------------------*\
  =========                 |
  \\      /  F ield         | OpenFOAM: The Open Source CFD Toolbox
   \\    /   O peration     | Website:  https://openfoam.org
    \\  /    A nd           | Version:  7
     \\/     M anipulation  |
\*---------------------------------------------------------------------------*/
FoamFile
{
    version     2.0;
    format      ascii;
    class       surfaceScalarField;
    location    "0.05";
    object      alphaPhi0.water;
}
// * * * * * * * * * * * * * * * * * * * * * * * * * * * * * * * * * * * * * //

dimensions      [0 3 -1 0 0 0 0];

internalField   nonuniform List<scalar> 
17936
(
4.72291e-07
-4.72291e-07
1.34803e-06
-8.75742e-07
2.389e-06
-1.04097e-06
3.45015e-06
-1.06116e-06
4.47379e-06
-1.02363e-06
5.44976e-06
-9.75972e-07
6.38853e-06
-9.38763e-07
7.30664e-06
-9.18119e-07
8.22075e-06
-9.14096e-07
9.14556e-06
-9.24818e-07
1.0094e-05
-9.48397e-07
1.10775e-05
-9.83531e-07
1.21072e-05
-1.02968e-06
1.31944e-05
-1.08725e-06
1.43522e-05
-1.15781e-06
1.55967e-05
-1.24445e-06
1.69489e-05
-1.35223e-06
1.8438e-05
-1.48904e-06
2.01107e-05
-1.6727e-06
2.2023e-05
-1.91237e-06
2.42811e-05
-2.25805e-06
2.70336e-05
-2.75247e-06
2.98053e-05
-2.77178e-06
3.14494e-05
-1.64403e-06
3.1494e-05
-2.16923e-07
2.76639e-05
-9.51548e-08
1.02719e-05
-1.01884e-06
9.48511e-07
-1.1516e-07
3.35328e-07
3.59782e-08
1.01363e-07
3.40418e-08
2.70898e-08
1.21891e-08
6.69126e-09
2.97102e-09
1.56079e-09
6.16587e-10
3.42993e-10
1.31451e-10
7.02007e-11
2.96608e-11
1.3318e-11
6.40734e-12
2.32704e-12
1.31381e-12
3.68904e-13
2.53807e-13
5.20482e-14
4.54606e-14
6.86807e-15
7.18112e-15
7.77512e-16
1.13628e-15
1.13816e-16
1.54419e-16
8.0576e-18
1.80035e-17
2.51345e-19
1.36826e-18
4.22279e-20
5.53664e-20
1.4893e-21
6.71114e-07
-1.1434e-06
1.56891e-06
-1.77354e-06
2.52549e-06
-1.99755e-06
3.47265e-06
-2.00831e-06
4.38521e-06
-1.93618e-06
5.2622e-06
-1.85297e-06
6.11337e-06
-1.78993e-06
6.95164e-06
-1.75639e-06
7.78997e-06
-1.75242e-06
8.64011e-06
-1.77495e-06
9.51258e-06
-1.82088e-06
1.04172e-05
-1.88813e-06
1.13635e-05
-1.97596e-06
1.23614e-05
-2.08524e-06
1.34226e-05
-2.21894e-06
1.45608e-05
-2.38267e-06
1.57943e-05
-2.58569e-06
1.71481e-05
-2.84291e-06
1.86583e-05
-3.18284e-06
2.03724e-05
-3.6265e-06
2.23561e-05
-4.24176e-06
2.4583e-05
-4.97934e-06
2.68648e-05
-5.05357e-06
2.87963e-05
-3.57557e-06
2.77179e-05
-1.32101e-06
1.48928e-05
-1.72607e-07
1.686e-06
-1.35755e-07
3.42935e-07
-1.39828e-07
1.22924e-07
1.0114e-09
4.04997e-08
3.49137e-09
9.46179e-09
1.03482e-09
2.27801e-09
2.44917e-10
5.65859e-10
8.50876e-11
1.25995e-10
2.6054e-11
2.58081e-11
6.98009e-12
4.87127e-12
1.68706e-12
8.4406e-13
3.85316e-13
1.33428e-13
8.36027e-14
1.92915e-14
1.72494e-14
3.05143e-15
3.63817e-15
5.99854e-16
6.96018e-16
8.03037e-17
1.22949e-16
5.32739e-18
1.45727e-17
1.88802e-19
1.25217e-18
1.78143e-20
6.41371e-20
1.8738e-21
8.15437e-07
-1.95883e-06
1.69144e-06
-2.64955e-06
2.54078e-06
-2.84689e-06
3.35542e-06
-2.82295e-06
4.13763e-06
-2.71839e-06
4.89573e-06
-2.61107e-06
5.63991e-06
-2.5341e-06
6.38026e-06
-2.49675e-06
7.12623e-06
-2.49839e-06
7.88642e-06
-2.53513e-06
8.66886e-06
-2.60332e-06
9.48131e-06
-2.70059e-06
1.03317e-05
-2.82635e-06
1.12286e-05
-2.9821e-06
1.21817e-05
-3.17204e-06
1.32029e-05
-3.4039e-06
1.43075e-05
-3.69034e-06
1.55163e-05
-4.05165e-06
1.68562e-05
-4.52276e-06
1.83644e-05
-5.13473e-06
2.00692e-05
-5.94651e-06
2.19248e-05
-6.83494e-06
2.38487e-05
-6.97751e-06
2.57408e-05
-5.46762e-06
2.0207e-05
-2.72089e-06
3.89575e-06
-1.38104e-07
4.85933e-07
2.55168e-08
1.27192e-07
-3.42695e-08
4.713e-08
1.41273e-09
1.48028e-08
1.22112e-09
3.97267e-09
2.00743e-10
9.14354e-10
4.74309e-12
2.0017e-10
-1.32769e-12
4.08143e-11
6.2847e-13
7.69786e-12
3.87674e-13
1.37071e-12
1.38205e-13
2.26634e-13
4.15309e-14
3.43147e-14
1.18117e-14
5.66187e-15
3.64603e-15
1.28066e-15
9.98756e-16
2.53049e-16
2.50976e-16
2.74669e-17
4.09282e-17
1.85048e-18
4.96991e-18
7.80037e-20
4.72128e-19
5.43878e-21
2.83331e-20
9.81215e-22
9.01505e-07
-2.86034e-06
1.74511e-06
-3.49316e-06
2.49683e-06
-3.59861e-06
3.19269e-06
-3.51881e-06
3.85644e-06
-3.38213e-06
4.50421e-06
-3.25885e-06
5.14746e-06
-3.17734e-06
5.79463e-06
-3.14392e-06
6.45259e-06
-3.15636e-06
7.12742e-06
-3.20997e-06
7.82496e-06
-3.30086e-06
8.55113e-06
-3.42676e-06
9.31229e-06
-3.58751e-06
1.01155e-05
-3.78531e-06
1.09689e-05
-4.02544e-06
1.18823e-05
-4.31732e-06
1.2868e-05
-4.67606e-06
1.39418e-05
-5.12544e-06
1.51226e-05
-5.70354e-06
1.6434e-05
-6.44615e-06
1.78819e-05
-7.39442e-06
1.94289e-05
-8.38192e-06
2.10532e-05
-8.60184e-06
2.26165e-05
-7.0309e-06
1.12815e-05
-3.55691e-06
5.97129e-07
2.84694e-08
1.89587e-07
3.62323e-08
4.60875e-08
8.87709e-10
1.39253e-08
1.7757e-09
4.21227e-09
8.67406e-10
1.15846e-09
1.98041e-10
2.7884e-10
2.93567e-11
6.09511e-11
3.84813e-12
1.23339e-11
6.78288e-13
2.36791e-12
1.58613e-13
4.26028e-13
4.18903e-14
6.99857e-14
1.22078e-14
1.15842e-14
4.17028e-15
1.95184e-15
1.30519e-15
4.59792e-16
3.95636e-16
7.01027e-17
7.8554e-17
6.76251e-18
1.15459e-17
5.12853e-19
1.49306e-18
2.50947e-20
1.54627e-19
1.56782e-21
1.05742e-20
4.3582e-22
9.38745e-07
-3.79909e-06
1.74468e-06
-4.29909e-06
2.41503e-06
-4.26896e-06
3.01345e-06
-4.11723e-06
3.57849e-06
-3.94716e-06
4.13224e-06
-3.81261e-06
4.68761e-06
-3.73272e-06
5.25239e-06
-3.70869e-06
5.83184e-06
-3.73581e-06
6.43025e-06
-3.80838e-06
7.05172e-06
-3.92234e-06
7.70068e-06
-4.07572e-06
8.38207e-06
-4.2689e-06
9.10157e-06
-4.50481e-06
9.86575e-06
-4.78961e-06
1.06824e-05
-5.13392e-06
1.15606e-05
-5.55429e-06
1.25112e-05
-6.07606e-06
1.35452e-05
-6.73755e-06
1.46733e-05
-7.57423e-06
1.58881e-05
-8.60917e-06
1.71604e-05
-9.6543e-06
1.85051e-05
-9.94654e-06
1.80878e-05
-8.14496e-06
4.32906e-06
-3.42341e-06
2.17562e-07
4.49509e-08
6.26948e-08
2.14703e-08
1.61055e-08
2.93907e-09
4.21706e-09
1.73212e-09
1.14684e-09
6.39281e-10
3.01299e-10
1.45848e-10
7.15282e-11
2.62148e-11
1.56333e-11
4.31851e-12
3.17106e-12
7.19959e-13
6.00075e-13
1.2757e-13
1.05049e-13
2.55232e-14
1.76855e-14
6.465e-15
2.85279e-15
1.91371e-15
6.80889e-16
5.78449e-16
1.23508e-16
1.3053e-16
1.49639e-17
2.07526e-17
1.56235e-18
3.0949e-18
1.31051e-19
4.20231e-19
7.35833e-21
4.74925e-20
4.06019e-22
3.72657e-21
1.69437e-22
9.39215e-07
-4.7383e-06
1.70422e-06
-5.0641e-06
2.30903e-06
-4.87377e-06
2.83122e-06
-4.63943e-06
3.31807e-06
-4.43402e-06
3.79567e-06
-4.2902e-06
4.27819e-06
-4.21523e-06
4.7733e-06
-4.20381e-06
5.28543e-06
-4.24794e-06
5.81773e-06
-4.34067e-06
6.37309e-06
-4.4777e-06
6.95474e-06
-4.65737e-06
7.56643e-06
-4.88059e-06
8.21262e-06
-5.151e-06
8.89841e-06
-5.4754e-06
9.62955e-06
-5.86506e-06
1.04123e-05
-6.33704e-06
1.12527e-05
-6.9165e-06
1.21547e-05
-7.63948e-06
1.3118e-05
-8.53752e-06
1.41264e-05
-9.6176e-06
1.51561e-05
-1.0684e-05
1.62418e-05
-1.10323e-05
1.29688e-05
-9.3468e-06
9.23419e-07
-2.78112e-06
1.13705e-07
2.96704e-08
3.01153e-08
1.42679e-08
6.84265e-09
3.7807e-09
1.51551e-09
1.6317e-09
3.57232e-10
4.79285e-10
8.478e-11
1.00148e-10
1.90509e-11
1.77079e-11
3.98303e-12
2.91879e-12
7.76636e-13
4.6936e-13
1.41394e-13
7.68891e-14
2.40975e-14
1.3936e-14
4.10437e-15
3.31501e-15
9.13699e-16
8.614e-16
1.80279e-16
2.02342e-16
2.54658e-17
3.34818e-17
3.13069e-18
5.18838e-18
3.47265e-19
7.81907e-19
3.18969e-20
1.10882e-19
2.03491e-21
1.36272e-20
1.00107e-22
1.22133e-21
6.09503e-23
9.13374e-07
-5.65168e-06
1.63555e-06
-5.78626e-06
2.18832e-06
-5.42654e-06
2.65289e-06
-5.104e-06
3.08023e-06
-4.86136e-06
3.49853e-06
-4.7085e-06
3.92283e-06
-4.63953e-06
4.36097e-06
-4.64195e-06
4.81703e-06
-4.70401e-06
5.29356e-06
-4.8172e-06
5.79268e-06
-4.97682e-06
6.31672e-06
-5.18141e-06
6.86853e-06
-5.4324e-06
7.45148e-06
-5.73395e-06
8.06937e-06
-6.0933e-06
8.72617e-06
-6.52186e-06
9.4255e-06
-7.03638e-06
1.01694e-05
-7.66041e-06
1.09558e-05
-8.42584e-06
1.17762e-05
-9.35794e-06
1.26088e-05
-1.04502e-05
1.34338e-05
-1.15091e-05
1.43009e-05
-1.18993e-05
9.40293e-06
-9.81115e-06
2.41698e-07
-2.1717e-06
6.71522e-08
-2.41313e-08
1.62631e-08
9.50552e-09
3.21172e-09
3.92339e-09
6.0356e-10
1.39147e-09
1.22897e-10
3.4547e-10
2.58456e-11
6.64379e-11
5.28179e-12
1.11322e-11
1.02645e-12
1.74306e-12
1.87706e-13
2.63907e-13
3.16324e-14
4.03557e-14
5.59933e-15
7.27031e-15
1.16425e-15
1.41892e-15
2.51188e-16
3.29399e-16
3.95233e-17
5.57865e-17
5.16987e-18
8.42268e-18
6.50735e-19
1.27076e-18
7.57001e-20
1.9169e-19
7.54894e-21
2.81876e-20
5.42887e-22
3.75182e-21
2.4403e-23
3.82789e-22
2.12057e-23
8.6971e-07
-6.5214e-06
1.54814e-06
-6.46469e-06
2.05991e-06
-5.93832e-06
2.48249e-06
-5.52657e-06
2.86648e-06
-5.24536e-06
3.24051e-06
-5.08253e-06
3.61998e-06
-5.01901e-06
4.01296e-06
-5.03493e-06
4.42356e-06
-5.11461e-06
4.85409e-06
-5.24773e-06
5.30625e-06
-5.42898e-06
5.78181e-06
-5.65698e-06
6.28291e-06
-5.93349e-06
6.81204e-06
-6.26309e-06
7.37193e-06
-6.65319e-06
7.96499e-06
-7.11493e-06
8.5927e-06
-7.66408e-06
9.25391e-06
-8.32162e-06
9.94207e-06
-9.11401e-06
1.06432e-05
-1.00591e-05
1.13326e-05
-1.11395e-05
1.19952e-05
-1.21718e-05
1.26952e-05
-1.25993e-05
6.9116e-06
-1.00546e-05
1.4036e-07
-1.76703e-06
4.2442e-08
-8.05615e-08
9.4033e-09
6.43335e-09
1.63701e-09
3.77996e-09
2.66066e-10
1.14427e-09
4.64507e-11
2.47935e-10
8.53404e-12
4.39201e-11
1.5583e-12
6.91711e-12
2.75258e-13
1.01747e-12
4.57333e-14
1.43473e-13
7.81381e-15
2.04547e-14
1.34051e-15
3.41396e-15
3.63373e-16
6.29704e-16
6.46788e-17
1.07926e-16
8.32573e-18
1.52652e-17
1.07795e-18
2.16311e-18
1.36358e-19
3.13229e-19
1.64382e-20
4.66722e-20
1.76434e-21
7.04575e-21
1.42205e-22
1.01002e-21
6.14232e-24
1.16974e-22
7.35133e-24
8.14597e-07
-7.336e-06
1.44936e-06
-7.09946e-06
1.92916e-06
-6.41811e-06
2.3227e-06
-5.92012e-06
2.67711e-06
-5.59977e-06
3.01994e-06
-5.42535e-06
3.36648e-06
-5.36555e-06
3.725e-06
-5.39345e-06
4.09983e-06
-5.48943e-06
4.49334e-06
-5.64124e-06
4.90712e-06
-5.84276e-06
5.34262e-06
-6.09248e-06
5.80147e-06
-6.39234e-06
6.2855e-06
-6.74712e-06
6.79656e-06
-7.16424e-06
7.33588e-06
-7.65424e-06
7.90325e-06
-8.23146e-06
8.4953e-06
-8.91367e-06
9.10263e-06
-9.72133e-06
9.70813e-06
-1.06646e-05
1.02868e-05
-1.17182e-05
1.08291e-05
-1.2714e-05
1.14125e-05
-1.31827e-05
5.25508e-06
-1.02101e-05
1.04324e-07
-1.53251e-06
2.88235e-08
-1.14736e-07
5.843e-09
4.76506e-09
9.19831e-10
3.59512e-09
1.32722e-10
9.54479e-10
1.98167e-11
1.8436e-10
3.10404e-12
3.00477e-11
4.94199e-13
4.4145e-12
7.75606e-14
6.06056e-13
1.19483e-14
7.84363e-14
1.9971e-15
1.07745e-14
5.86942e-16
1.53675e-15
1.14973e-16
2.62045e-16
1.51364e-17
3.45798e-17
1.87791e-18
4.45024e-18
2.345e-19
5.8351e-19
2.92924e-20
7.971e-20
3.608e-21
1.15331e-20
4.1273e-22
1.76247e-21
3.71268e-23
2.6986e-22
1.6801e-24
3.53633e-23
2.60582e-24
7.52497e-07
-8.08849e-06
1.34482e-06
-7.69177e-06
1.80036e-06
-6.87365e-06
2.17583e-06
-6.29558e-06
2.51239e-06
-5.93633e-06
2.83535e-06
-5.74831e-06
3.15944e-06
-5.68964e-06
3.49306e-06
-5.72706e-06
3.84089e-06
-5.83727e-06
4.2056e-06
-6.00595e-06
4.58887e-06
-6.22603e-06
4.99204e-06
-6.49566e-06
5.41645e-06
-6.81674e-06
5.86345e-06
-7.19412e-06
6.33421e-06
-7.63501e-06
6.82913e-06
-8.14916e-06
7.34687e-06
-8.74919e-06
7.8827e-06
-9.44951e-06
8.42586e-06
-1.02645e-05
8.95827e-06
-1.1197e-05
9.45659e-06
-1.22165e-05
9.91666e-06
-1.31741e-05
1.04258e-05
-1.36918e-05
4.20438e-06
-1.03757e-05
8.20945e-08
-1.42107e-06
2.09533e-08
-1.36644e-07
3.91919e-09
3.93146e-09
5.69656e-10
3.4456e-09
7.48401e-11
8.21431e-10
9.73527e-12
1.4407e-10
1.29166e-12
2.16952e-11
1.74601e-13
2.96796e-12
2.35719e-14
3.79019e-13
3.79146e-15
4.4369e-14
6.56787e-16
5.76e-15
2.26864e-16
7.57962e-16
3.59789e-17
1.0385e-16
3.97914e-18
1.2189e-17
4.61765e-19
1.42206e-18
5.44578e-20
1.70339e-19
6.5825e-21
2.15525e-20
8.13432e-22
2.96403e-21
9.79414e-23
4.49454e-22
9.79714e-24
7.25407e-23
5.19587e-25
1.0708e-23
9.4112e-25
6.86469e-07
-8.77496e-06
1.23897e-06
-8.24428e-06
1.67753e-06
-7.3122e-06
2.04448e-06
-6.66254e-06
2.37336e-06
-6.26521e-06
2.68633e-06
-6.06129e-06
2.99722e-06
-6.00053e-06
3.31451e-06
-6.04435e-06
3.64333e-06
-6.16609e-06
3.98678e-06
-6.3494e-06
4.34682e-06
-6.58606e-06
4.72487e-06
-6.87371e-06
5.12213e-06
-7.214e-06
5.53964e-06
-7.61163e-06
5.97813e-06
-8.07351e-06
6.43745e-06
-8.60848e-06
6.91564e-06
-9.22739e-06
7.40745e-06
-9.94132e-06
7.902e-06
-1.0759e-05
8.38194e-06
-1.16769e-05
8.82691e-06
-1.26614e-05
9.23718e-06
-1.35844e-05
9.70388e-06
-1.41585e-05
3.57758e-06
-1.06256e-05
6.54847e-08
-1.41556e-06
1.63769e-08
-1.5475e-07
2.89648e-09
3.57276e-09
3.97921e-10
3.38346e-09
4.88346e-11
7.38169e-10
5.71119e-12
1.19354e-10
6.55522e-13
1.67238e-11
7.50115e-14
2.13719e-12
8.71414e-15
2.54156e-13
1.5593e-15
2.70982e-14
4.55746e-16
3.21833e-15
9.54407e-17
4.01089e-16
1.15068e-17
4.5792e-17
1.19309e-18
4.8558e-18
1.27322e-19
5.1338e-19
1.39142e-20
5.57189e-20
1.58966e-21
6.41999e-21
1.92389e-22
8.18331e-22
2.39524e-23
1.19689e-22
2.65149e-24
1.99223e-23
1.66849e-25
3.28675e-24
3.45538e-25
6.18823e-07
-9.39378e-06
1.13607e-06
-8.76152e-06
1.56506e-06
-7.74119e-06
1.93224e-06
-7.02972e-06
2.26245e-06
-6.59542e-06
2.57419e-06
-6.37303e-06
2.88016e-06
-6.30649e-06
3.1889e-06
-6.35309e-06
3.50606e-06
-6.48325e-06
3.8353e-06
-6.67863e-06
4.17899e-06
-6.92976e-06
4.53877e-06
-7.23349e-06
4.91584e-06
-7.59108e-06
5.31109e-06
-8.00688e-06
5.725e-06
-8.48741e-06
6.15714e-06
-9.04063e-06
6.60536e-06
-9.67561e-06
7.06454e-06
-1.04005e-05
7.52471e-06
-1.12192e-05
7.9705e-06
-1.21227e-05
8.38518e-06
-1.30761e-05
8.7718e-06
-1.3971e-05
9.2183e-06
-1.4605e-05
3.25234e-06
-1.09649e-05
4.99939e-08
-1.50458e-06
1.36996e-08
-1.76396e-07
2.36906e-09
3.4592e-09
3.15867e-10
3.43029e-09
3.73337e-11
6.96199e-10
4.11053e-12
1.05238e-10
4.31813e-13
1.3855e-11
4.41261e-14
1.6665e-12
4.77547e-15
1.85601e-13
7.85397e-16
1.84157e-14
2.68557e-16
1.97634e-15
4.35254e-17
2.25041e-16
4.37725e-18
2.31499e-17
4.19343e-19
2.24758e-18
4.08322e-20
2.16671e-19
4.07284e-21
2.12949e-20
4.28951e-22
2.20953e-21
4.92681e-23
2.54415e-22
6.17124e-24
3.45437e-23
7.48369e-25
5.71535e-24
5.67216e-26
1.03587e-24
1.38512e-25
5.51905e-07
-9.94568e-06
1.04105e-06
-9.25068e-06
1.46851e-06
-8.16866e-06
1.84413e-06
-7.40533e-06
2.18378e-06
-6.93509e-06
2.50214e-06
-6.69139e-06
2.81071e-06
-6.61506e-06
3.1181e-06
-6.66049e-06
3.43054e-06
-6.79568e-06
3.75232e-06
-7.00042e-06
4.08635e-06
-7.26378e-06
4.43456e-06
-7.5817e-06
4.7983e-06
-7.95481e-06
5.17842e-06
-8.387e-06
5.57528e-06
-8.88428e-06
5.98845e-06
-9.45379e-06
6.41589e-06
-1.0103e-05
6.85311e-06
-1.08377e-05
7.29172e-06
-1.16578e-05
7.71917e-06
-1.25502e-05
8.12255e-06
-1.34795e-05
8.50553e-06
-1.4354e-05
8.94492e-06
-1.50444e-05
3.12746e-06
-1.14082e-05
3.66814e-08
-1.64462e-06
1.22291e-08
-2.04957e-07
2.13259e-09
3.48082e-09
2.82793e-10
3.59615e-09
3.3213e-11
6.89315e-10
3.60924e-12
9.88407e-11
3.70555e-13
1.23814e-11
3.66363e-14
1.41809e-12
3.91658e-15
1.49539e-13
5.36912e-16
1.38726e-14
1.64459e-16
1.37932e-15
2.2582e-17
1.45144e-16
2.01848e-18
1.38112e-17
1.78969e-19
1.24675e-18
1.59325e-20
1.1106e-19
1.4408e-21
9.9804e-21
1.3697e-22
9.33338e-22
1.43809e-23
9.54231e-23
1.73636e-24
1.15109e-23
2.25277e-25
1.78312e-24
2.18721e-26
3.41323e-25
6.85751e-26
4.9039e-07
-1.04361e-05
9.61351e-07
-9.72164e-06
1.39574e-06
-8.60305e-06
1.78736e-06
-7.79694e-06
2.14365e-06
-7.29138e-06
2.47562e-06
-7.02336e-06
2.79366e-06
-6.93309e-06
3.10648e-06
-6.97331e-06
3.42089e-06
-7.11008e-06
3.74186e-06
-7.32139e-06
4.0729e-06
-7.59482e-06
4.41632e-06
-7.92513e-06
4.7737e-06
-8.31218e-06
5.14594e-06
-8.75924e-06
5.53343e-06
-9.27177e-06
5.93583e-06
-9.85619e-06
6.35148e-06
-1.05187e-05
6.77679e-06
-1.1263e-05
7.2053e-06
-1.20863e-05
7.62763e-06
-1.29725e-05
8.03438e-06
-1.38863e-05
8.42786e-06
-1.47474e-05
8.86449e-06
-1.54811e-05
3.37499e-06
-1.22979e-05
2.26856e-08
-2.01272e-06
1.14654e-08
-2.46038e-07
2.05609e-09
3.35122e-09
2.77792e-10
3.85285e-09
3.34153e-11
7.12297e-10
3.72134e-12
9.88735e-11
3.90847e-13
1.20014e-11
3.92082e-14
1.33237e-12
4.07165e-15
1.35504e-13
4.9573e-16
1.18297e-14
1.14034e-16
1.12014e-15
1.38777e-17
1.10359e-16
1.16217e-18
9.97594e-18
9.65589e-20
8.54975e-19
7.96361e-21
7.18689e-20
6.57723e-22
6.02994e-21
5.60626e-23
5.17315e-22
5.20651e-24
4.71964e-23
5.70444e-25
4.91264e-24
7.50016e-26
6.57421e-25
1.288e-26
1.2161e-25
4.06627e-26
4.45745e-07
-1.08818e-05
9.09641e-07
-1.01855e-05
1.35864e-06
-9.05205e-06
1.77278e-06
-8.21107e-06
2.15193e-06
-7.67053e-06
2.50379e-06
-7.37522e-06
2.83775e-06
-7.26705e-06
3.16258e-06
-7.29815e-06
3.48565e-06
-7.43315e-06
3.81263e-06
-7.64837e-06
4.1476e-06
-7.92979e-06
4.49336e-06
-8.27089e-06
4.85171e-06
-8.67053e-06
5.22374e-06
-9.13127e-06
5.60992e-06
-9.65795e-06
6.01007e-06
-1.02563e-05
6.423e-06
-1.09316e-05
6.8461e-06
-1.16861e-05
7.27481e-06
-1.2515e-05
7.70279e-06
-1.34005e-05
8.12367e-06
-1.43071e-05
8.53623e-06
-1.516e-05
8.96864e-06
-1.59135e-05
3.84568e-06
-1.33645e-05
1.66218e-08
-2.48594e-06
1.08389e-08
-2.9317e-07
1.89849e-09
2.96088e-09
2.69267e-10
4.0339e-09
3.45664e-11
7.3973e-10
4.11549e-12
1.01927e-10
4.60451e-13
1.23064e-11
4.8593e-14
1.35894e-12
4.95291e-15
1.36564e-13
5.73652e-16
1.16376e-14
9.40973e-17
1.08406e-15
1.04773e-17
1.03694e-16
8.61551e-19
9.18954e-18
6.85355e-20
7.69172e-19
5.36423e-21
6.28203e-20
4.14355e-22
5.07727e-21
3.22428e-23
4.13391e-22
2.6372e-24
3.4822e-23
2.47744e-25
3.17599e-24
2.98185e-26
3.44883e-25
1.1401e-26
6.32979e-26
2.43006e-26
4.311e-07
-1.13129e-05
8.99744e-07
-1.06542e-05
1.36863e-06
-9.52095e-06
1.80953e-06
-8.65197e-06
2.21624e-06
-8.07724e-06
2.59342e-06
-7.75241e-06
2.94934e-06
-7.62297e-06
3.29268e-06
-7.64149e-06
3.63122e-06
-7.77168e-06
3.97121e-06
-7.98837e-06
4.31733e-06
-8.27591e-06
4.67281e-06
-8.62637e-06
5.03978e-06
-9.0375e-06
5.41951e-06
-9.511e-06
5.81262e-06
-1.00511e-05
6.21913e-06
-1.06628e-05
6.63828e-06
-1.13508e-05
7.06827e-06
-1.21161e-05
7.50612e-06
-1.29529e-05
7.94799e-06
-1.38424e-05
8.38945e-06
-1.47486e-05
8.82377e-06
-1.55943e-05
9.25561e-06
-1.63453e-05
4.28025e-06
-1.41778e-05
3.05982e-08
-2.81052e-06
1.0099e-08
-3.25206e-07
1.69146e-09
2.26707e-09
2.47462e-10
4.07082e-09
3.35565e-11
7.51024e-10
4.22686e-12
1.04309e-10
4.90894e-13
1.27213e-11
5.32923e-14
1.41189e-12
5.56454e-15
1.41861e-13
6.45851e-16
1.21147e-14
9.58133e-17
1.11996e-15
1.05079e-17
1.06601e-16
8.65417e-19
9.42097e-18
6.80734e-20
7.85706e-19
5.24258e-21
6.38522e-20
3.94693e-22
5.12349e-21
2.94073e-23
4.12556e-22
2.2208e-24
3.41195e-23
1.79401e-25
3.00775e-24
2.24287e-26
3.05255e-25
1.2943e-26
4.52206e-26
1.66026e-26
3.8872e-53
-1.50906e-51
8.18034e-54
-9.75308e-53
2.10345e-54
-3.87824e-54
8.73062e-56
-1.58679e-54
2.24968e-57
-3.93519e-56
5.65412e-59
-7.04098e-58
1.4492e-60
-1.17553e-59
3.61438e-62
-1.74514e-61
8.14899e-64
-1.91681e-63
1.7525e-65
-6.08809e-66
6.88175e-67
6.78956e-68
2.82185e-68
5.6672e-69
1.11435e-69
3.26533e-70
4.2832e-71
1.60319e-71
1.58663e-72
7.16204e-73
5.64393e-74
2.97458e-74
1.92151e-75
1.16067e-75
6.24157e-77
4.27498e-77
1.92813e-78
1.48739e-78
5.6464e-80
4.89253e-80
1.56231e-81
1.51972e-81
4.06933e-83
4.45328e-83
9.93904e-85
1.22878e-84
2.26624e-86
3.18033e-86
4.8002e-88
7.70632e-88
9.3914e-90
1.74008e-89
1.6854e-91
3.65003e-91
2.75166e-93
7.07337e-93
4.04328e-95
1.2599e-94
5.27256e-97
2.04983e-96
5.98197e-99
3.01764e-98
5.73401e-101
3.97358e-100
4.4378e-103
4.57233e-102
2.57271e-105
4.42124e-104
9.81652e-108
3.32851e-106
2.48443e-110
1.69185e-108
5.54731e-111
4.6344e-111
6.47675e-114
6.18978e-51
-2.98687e-50
8.22287e-52
-7.2512e-51
2.12129e-52
-6.00306e-52
8.3432e-54
-1.53775e-52
2.08661e-55
-3.61632e-54
4.99439e-57
-6.14737e-56
1.1857e-58
-9.52126e-58
2.65775e-60
-1.28348e-59
5.62235e-62
-1.26768e-61
1.51263e-63
-3.84241e-64
6.37922e-65
2.55398e-65
2.41335e-66
2.01363e-66
9.23198e-68
1.11449e-67
3.42911e-69
5.2705e-69
1.22759e-70
2.26708e-70
4.22138e-72
9.07289e-72
1.38995e-73
3.40982e-73
4.36901e-75
1.21036e-74
1.30708e-76
4.06116e-76
3.71012e-78
1.28866e-77
9.96045e-80
3.86581e-79
2.52016e-81
1.09442e-80
5.98725e-83
2.92065e-82
1.32993e-84
7.31998e-84
2.74879e-86
1.71908e-85
5.25765e-88
3.76885e-87
9.24417e-90
7.6835e-89
1.48234e-91
1.45038e-90
2.14561e-93
2.52009e-92
2.76625e-95
4.00822e-94
3.11847e-97
5.78406e-96
2.99245e-99
7.48653e-98
2.34766e-101
8.51748e-100
1.41072e-103
8.22131e-102
5.81745e-106
6.31599e-104
1.41472e-108
3.42845e-106
6.63633e-111
1.17451e-108
1.1021e-111
5.48989e-49
-3.37509e-48
4.17857e-50
-6.02752e-49
1.05284e-50
-4.07409e-50
3.8915e-52
-7.52432e-51
9.36481e-54
-1.66831e-52
2.13485e-55
-2.72037e-54
4.78519e-57
-4.03501e-56
1.01569e-58
-5.27373e-58
1.92474e-60
-5.25767e-60
4.89178e-62
-1.26068e-62
1.89287e-63
1.33369e-63
6.65487e-65
9.51943e-65
2.3459e-66
4.78926e-66
8.01559e-68
2.0701e-67
2.63888e-69
8.14703e-69
8.34415e-71
2.98441e-70
2.52629e-72
1.02676e-71
7.30226e-74
3.33511e-73
2.00927e-75
1.02403e-74
5.24683e-77
2.97327e-76
1.29631e-78
8.16053e-78
3.01978e-80
2.1134e-79
6.60888e-82
5.15737e-81
1.35327e-83
1.18221e-82
2.58057e-85
2.53913e-84
4.55864e-87
5.09202e-86
7.41203e-89
9.49655e-88
1.10089e-90
1.64018e-89
1.47917e-92
2.60879e-91
1.77568e-94
3.80001e-93
1.87286e-96
5.02802e-95
1.69478e-98
5.979e-97
1.27109e-100
6.28085e-99
7.47942e-103
5.66073e-101
3.14992e-105
4.15802e-103
9.27202e-108
2.26284e-105
2.36168e-109
9.04051e-108
1.23509e-110
2.90697e-47
-2.19187e-46
1.46113e-48
-3.04671e-47
3.48235e-49
-1.71439e-48
1.21944e-50
-2.47058e-49
2.81549e-52
-5.21398e-51
6.08928e-54
-8.17122e-53
1.28245e-55
-1.16103e-54
2.54688e-57
-1.45544e-56
4.52052e-59
-1.38557e-58
9.55414e-61
-1.69937e-61
3.36698e-62
3.92499e-62
1.09182e-63
2.45488e-63
3.49365e-65
1.10414e-64
1.08173e-66
4.29505e-66
3.22565e-68
1.52365e-67
9.23551e-70
5.03286e-69
2.53138e-71
1.56157e-70
6.62332e-73
4.57296e-72
1.64965e-74
1.26571e-73
3.89946e-76
3.31191e-75
8.72208e-78
8.18885e-77
1.83983e-79
1.91012e-78
3.64706e-81
4.19673e-80
6.76693e-83
8.66079e-82
1.16988e-84
1.67432e-83
1.87494e-86
3.02192e-85
2.76838e-88
5.07217e-87
3.73876e-90
7.88429e-89
4.57655e-92
1.12903e-90
5.02005e-94
1.4812e-92
4.86167e-96
1.76721e-94
4.07255e-98
1.89939e-96
2.86658e-100
1.81321e-98
1.61968e-102
1.50209e-100
6.7971e-105
1.03668e-102
2.16726e-107
5.51895e-105
1.74432e-108
2.42654e-107
4.64443e-110
1.05871e-45
-9.50425e-45
3.9461e-47
-1.0964e-45
8.75674e-48
-5.27219e-47
2.9376e-49
-6.21143e-48
6.49728e-51
-1.25892e-49
1.3262e-52
-1.89676e-51
2.59775e-54
-2.57023e-53
4.72727e-56
-3.04638e-55
7.55308e-58
-2.66288e-57
1.43935e-59
1.07409e-60
4.66261e-61
8.46646e-61
1.36412e-62
4.56531e-62
3.95087e-64
1.83083e-63
1.10545e-65
6.39494e-65
2.97702e-67
2.04094e-66
7.69426e-69
6.06817e-68
1.90306e-70
1.69503e-69
4.49195e-72
4.46778e-71
1.00909e-73
1.11284e-72
2.15111e-75
2.61998e-74
4.3388e-77
5.82705e-76
8.25321e-79
1.22245e-77
1.47543e-80
2.41495e-79
2.46931e-82
4.48075e-81
3.8518e-84
7.7872e-83
5.57239e-86
1.2635e-84
7.43223e-88
1.90669e-86
9.0766e-90
2.66505e-88
1.00645e-91
3.43313e-90
1.00287e-93
4.05424e-92
8.86454e-96
4.36017e-94
6.83094e-98
4.23602e-96
4.4798e-100
3.67592e-98
2.40634e-102
2.79848e-100
9.8971e-105
1.80953e-102
3.38806e-107
9.32518e-105
5.26788e-108
4.26276e-107
9.81048e-110
2.89485e-44
-3.03141e-43
8.78258e-46
-3.06069e-44
1.80809e-46
-1.29248e-45
5.90752e-48
-1.29257e-46
1.26215e-49
-2.54629e-48
2.44841e-51
-3.71367e-50
4.48922e-53
-4.81612e-52
7.51905e-55
-5.37873e-54
1.06817e-56
-4.21036e-56
1.89677e-58
1.04694e-58
5.55875e-60
1.50998e-59
1.48023e-61
7.07033e-61
3.89029e-63
2.53806e-62
9.8675e-65
7.99184e-64
2.40718e-66
2.30409e-65
5.63224e-68
6.19216e-67
1.26048e-69
1.56373e-68
2.69097e-71
3.72578e-70
5.46567e-73
8.38787e-72
1.05318e-74
1.78463e-73
1.91974e-76
3.58632e-75
3.29969e-78
6.79731e-77
5.32981e-80
1.21299e-78
8.05973e-82
2.03301e-80
1.1361e-83
3.19164e-82
1.48568e-85
4.67819e-84
1.79209e-87
6.37849e-86
1.98111e-89
8.05672e-88
1.99157e-91
9.38269e-90
1.80384e-93
1.00228e-91
1.45562e-95
9.76286e-94
1.03129e-97
8.61221e-96
6.28703e-100
6.81933e-98
3.19154e-102
4.78113e-100
1.26981e-104
2.89286e-102
4.41925e-107
1.4317e-104
9.74588e-108
6.36336e-107
1.62673e-109
6.32043e-43
-7.57848e-42
1.6813e-44
-6.99776e-43
3.20751e-45
-2.66112e-44
1.04036e-46
-2.32787e-45
2.17498e-48
-4.52191e-47
4.05412e-50
-6.44643e-49
7.0258e-52
-8.04752e-51
1.09044e-53
-8.45522e-53
1.371e-55
-5.75695e-55
2.32588e-57
3.11731e-57
6.21571e-59
2.43023e-58
1.5177e-60
9.98177e-60
3.64574e-62
3.23283e-61
8.442e-64
9.24814e-63
1.87839e-65
2.42744e-64
4.00556e-67
5.94287e-66
8.16482e-69
1.3674e-67
1.58676e-70
2.96817e-69
2.93249e-72
6.08704e-71
5.13955e-74
1.17957e-72
8.51829e-76
2.15867e-74
1.33095e-77
3.72568e-76
1.95389e-79
6.05377e-78
2.68512e-81
9.23895e-80
3.43967e-83
1.32079e-81
4.0883e-85
1.76311e-83
4.48397e-87
2.18964e-85
4.51034e-89
2.51974e-87
4.13114e-91
2.67442e-89
3.41687e-93
2.60521e-91
2.52727e-95
2.31658e-93
1.65077e-97
1.86945e-95
9.35892e-100
1.35969e-97
4.47296e-102
8.82005e-100
1.70295e-104
4.99899e-102
6.29137e-107
2.36281e-104
1.40329e-107
9.68761e-107
2.61389e-109
1.1522e-41
-1.55225e-40
2.85629e-43
-1.35992e-41
5.03598e-44
-4.7607e-43
1.65515e-45
-3.73205e-44
3.44163e-47
-7.26531e-46
6.25168e-49
-1.02483e-47
1.03635e-50
-1.24125e-49
1.50218e-52
-1.22606e-51
1.65267e-54
-6.94227e-54
2.80674e-56
6.67432e-56
6.91218e-58
3.74697e-57
1.56337e-59
1.36816e-58
3.46709e-61
4.04098e-60
7.40169e-63
1.06119e-61
1.51673e-64
2.5622e-63
2.97594e-66
5.77343e-65
5.57715e-68
1.22278e-66
9.95854e-70
2.44283e-68
1.69004e-71
4.60982e-70
2.71864e-73
8.21874e-72
4.13396e-75
1.38358e-73
5.92405e-77
2.19651e-75
7.97404e-79
3.28282e-77
1.00457e-80
4.60864e-79
1.17959e-82
6.06291e-81
1.28519e-84
7.44824e-83
1.29243e-86
8.51415e-85
1.19264e-88
9.02011e-87
1.00321e-90
8.81713e-89
7.63391e-93
7.91443e-91
5.20961e-95
6.49124e-93
3.22529e-97
4.84027e-95
1.76836e-99
3.26335e-97
8.38808e-102
1.97274e-99
3.28502e-104
1.05048e-101
1.2258e-106
4.72387e-104
1.89413e-107
1.76406e-106
4.70744e-109
1.81216e-40
-2.68921e-39
4.40655e-42
-2.30599e-40
7.13229e-43
-7.56866e-42
2.42566e-44
-5.41707e-43
5.11245e-46
-1.07522e-44
9.20267e-48
-1.52242e-46
1.47946e-49
-1.80631e-48
2.02012e-51
-1.67501e-50
1.99631e-53
-7.20302e-53
3.48895e-55
1.20255e-54
7.95536e-57
5.78201e-56
1.69444e-58
1.9064e-57
3.51214e-60
5.20169e-59
6.9968e-62
1.2697e-60
1.33628e-63
2.85495e-62
2.44105e-65
5.99375e-64
4.2554e-67
1.18272e-65
7.06268e-69
2.20101e-67
1.11335e-70
3.86813e-69
1.66266e-72
6.42349e-71
2.36712e-74
1.00732e-72
3.19445e-76
1.48946e-74
4.04697e-78
2.07306e-76
4.7986e-80
2.70973e-78
5.3051e-82
3.3178e-80
5.44668e-84
3.7937e-82
5.17029e-86
4.03693e-84
4.51565e-88
3.98207e-86
3.60974e-90
3.62528e-88
2.62668e-92
3.03215e-90
1.72991e-94
2.31903e-92
1.02428e-96
1.61455e-94
5.40029e-99
1.01824e-96
2.4872e-101
5.77579e-99
9.57773e-104
2.89969e-101
3.20386e-106
1.23774e-103
2.79298e-107
4.238e-106
1.05866e-108
2.52009e-39
-4.03417e-38
6.29587e-41
-3.47536e-39
9.20193e-42
-1.0899e-40
3.30585e-43
-7.17233e-42
7.20968e-45
-1.47679e-43
1.31032e-46
-2.1324e-45
2.07381e-48
-2.50519e-47
2.6852e-50
-2.16907e-49
2.39643e-52
-5.42856e-52
4.61215e-54
2.0138e-53
9.84032e-56
9.22615e-55
2.00241e-57
2.79524e-56
3.93506e-59
7.15053e-58
7.41937e-61
1.64563e-59
1.33921e-62
3.49477e-61
2.30939e-64
6.93224e-63
3.86023e-66
1.2923e-64
6.20153e-68
2.27319e-66
9.43707e-70
3.77684e-68
1.35764e-71
5.92366e-70
1.84241e-73
8.76635e-72
2.35331e-75
1.22271e-73
2.82194e-77
1.60478e-75
3.16747e-79
1.97777e-77
3.31687e-81
2.28306e-79
3.22819e-83
2.46119e-81
2.90799e-85
2.46925e-83
2.41344e-87
2.29663e-85
1.83641e-89
1.97179e-87
1.27463e-91
1.55566e-89
8.02772e-94
1.12273e-91
4.55978e-96
7.38008e-94
2.31471e-98
4.39765e-96
1.03108e-100
2.35898e-98
3.86206e-103
1.12118e-100
1.17871e-105
4.5366e-103
5.12916e-107
1.4373e-105
3.22574e-108
3.16431e-38
-5.33487e-37
8.49251e-40
-4.71408e-38
1.08096e-40
-1.45e-39
4.1837e-42
-8.64365e-41
9.64504e-44
-1.87544e-42
1.8044e-45
-2.80593e-44
2.85341e-47
-3.29665e-46
3.50936e-49
-2.62159e-48
2.96176e-51
4.05203e-52
6.64095e-53
3.99899e-52
1.34353e-54
1.55897e-53
2.65089e-56
4.42331e-55
5.01956e-58
1.07846e-56
9.10179e-60
2.37775e-58
1.60826e-61
4.84509e-60
2.76664e-63
9.2274e-62
4.51574e-65
1.65313e-63
6.98165e-67
2.79145e-65
1.02118e-68
4.44607e-67
1.41111e-70
6.68184e-69
1.83899e-72
9.47115e-71
2.25554e-74
1.26485e-72
2.59728e-76
1.58904e-74
2.80005e-78
1.87413e-76
2.81714e-80
2.07e-78
2.63558e-82
2.13487e-80
2.28356e-84
2.04893e-82
1.82428e-86
1.82292e-84
1.33733e-88
1.49708e-86
8.951e-91
1.1298e-88
5.44091e-93
7.79899e-91
2.98453e-95
4.90222e-93
1.46332e-97
2.79145e-95
6.29272e-100
1.42875e-97
2.27308e-102
6.46178e-100
6.41807e-105
2.47724e-102
1.32022e-106
7.29417e-105
1.42955e-107
3.67713e-37
-6.30492e-36
1.08024e-38
-5.78706e-37
1.1373e-39
-1.75745e-38
4.83447e-41
-9.34756e-40
1.20467e-42
-2.16261e-41
2.36244e-44
-3.3967e-43
3.77398e-46
-3.99927e-45
4.3219e-48
-2.76533e-47
4.70408e-50
1.15723e-49
1.03468e-51
8.10274e-51
2.06563e-53
2.83187e-52
4.0079e-55
7.68171e-54
7.44477e-57
1.81767e-55
1.36148e-58
3.90761e-57
2.42402e-60
7.77983e-59
4.09092e-62
1.44829e-60
6.53678e-64
2.53492e-62
9.88335e-66
4.17709e-64
1.41277e-67
6.48894e-66
1.90692e-69
9.50636e-68
2.42654e-71
1.31288e-69
2.90526e-73
1.70756e-71
3.26528e-75
2.08842e-73
3.43578e-77
2.39715e-75
3.3741e-79
2.57607e-77
3.08166e-81
2.58437e-79
2.60725e-83
2.41229e-81
2.03438e-85
2.08696e-83
1.45693e-87
1.66634e-85
9.52632e-90
1.22232e-87
5.65413e-92
8.19746e-90
3.0242e-94
5.00104e-92
1.44171e-96
2.75836e-94
5.99835e-99
1.36232e-96
2.08062e-101
5.90665e-99
5.47143e-104
2.14892e-101
5.33015e-106
5.88501e-104
9.92034e-107
4.09039e-36
-6.65022e-35
1.304e-37
-6.37003e-36
1.01734e-38
-1.91183e-37
4.86846e-40
-8.79712e-39
1.35527e-41
-2.19006e-40
2.86991e-43
-3.67722e-42
4.70728e-45
-4.33786e-44
4.87386e-47
-2.18875e-46
8.01373e-49
2.99842e-48
1.75618e-50
1.68449e-49
3.53498e-52
5.48121e-51
6.8793e-54
1.45262e-52
1.29879e-55
3.40198e-54
2.44404e-57
7.27236e-56
4.35303e-59
1.44201e-57
7.33472e-61
2.67365e-59
1.16872e-62
4.65759e-61
1.76064e-64
7.63473e-63
2.50581e-66
1.17914e-64
3.36562e-68
1.71643e-66
4.25962e-70
2.35411e-68
5.07063e-72
3.0392e-70
5.66466e-74
3.68807e-72
5.92346e-76
4.19872e-74
5.78041e-78
4.47389e-76
5.24583e-80
4.44912e-78
4.40988e-82
4.11567e-80