/*--------------------------------*- C++ -*----------------------------------*\
  =========                 |
  \\      /  F ield         | OpenFOAM: The Open Source CFD Toolbox
   \\    /   O peration     | Website:  https://openfoam.org
    \\  /    A nd           | Version:  7
     \\/     M anipulation  |
\*---------------------------------------------------------------------------*/
FoamFile
{
    version     2.0;
    format      ascii;
    class       volScalarField;
    location    "0.05";
    object      alpha.water;
}
// * * * * * * * * * * * * * * * * * * * * * * * * * * * * * * * * * * * * * //

dimensions      [0 0 0 0 0 0 0];

internalField   nonuniform List<scalar> 
9072
(
1
1
1
1
1
1
1
1
1
1
1
1
1
1
1
1
1
1
1
1
1
1
1
1
0.998643
0.973883
0.739515
0.176395
0.0183027
0.00577727
0.0016568
0.000436411
0.000107057
2.45795e-05
5.27626e-06
1.0556e-06
1.95905e-07
3.34905e-08
5.18967e-09
7.13045e-10
9.33838e-11
1.07825e-11
1.60497e-12
1.10188e-13
2.62536e-15
6.8599e-16
1
1
1
1
1
1
1
1
1
1
1
1
1
1
1
1
1
1
1
1
1
1
1
1
0.990728
0.803396
0.301819
0.0331397
0.00793848
0.00331693
0.00102064
0.000230418
5.2205e-05
1.21162e-05
2.62204e-06
5.28397e-07
9.88948e-08
1.70836e-08
2.68863e-09
3.7932e-10
5.74879e-11
1.05943e-11
1.38162e-12
8.97278e-14
2.74722e-15
2.90468e-16
1
1
1
1
1
1
1
1
1
1
1
1
1
1
1
1
1
1
1
1
1
1
1
1
0.94542
0.528213
0.0619347
0.00789006
0.00262702
0.00095389
0.000290488
7.60454e-05
1.77599e-05
3.93282e-06
8.14836e-07
1.57838e-07
2.90563e-08
5.01575e-09
8.06641e-10
1.36631e-10
2.88655e-11
5.48979e-12
6.02016e-13
4.31371e-14
1.81236e-15
1.04466e-16
1
1
1
1
1
1
1
1
1
1
1
1
1
1
1
1
1
1
1
1
1
1
1
1
0.824113
0.245247
0.0116109
0.00306604
0.000874694
0.000261015
7.43301e-05
1.94408e-05
4.60321e-06
1.0084e-06
2.06081e-07
4.00449e-08
7.3535e-09
1.25581e-09
2.24259e-10
4.25625e-11
1.02484e-11
1.58279e-12
1.64204e-13
1.34373e-14
6.8198e-16
3.45364e-17
1
1
1
1
1
1
1
1
1
1
1
1
1
1
1
1
1
1
1
1
1
1
1
1
0.633219
0.0792594
0.00532556
0.00129395
0.000325436
8.42131e-05
2.14617e-05
5.23892e-06
1.19036e-06
2.55765e-07
5.16797e-08
9.8397e-09
1.76144e-09
3.21459e-10
5.90802e-11
1.52187e-11
2.8538e-12
3.68906e-13
4.17667e-14
3.80925e-15
2.25755e-16
1.08908e-17
1
1
1
1
1
1
1
1
1
1
1
1
1
1
1
1
1
1
1
1
1
1
1
0.98442
0.441859
0.0195088
0.00289365
0.000650833
0.000146089
3.31595e-05
7.50189e-06
1.65139e-06
3.4839e-07
7.00718e-08
1.34032e-08
2.43739e-09
4.39069e-10
8.40632e-11
2.08563e-11
4.36057e-12
6.40348e-13
8.49941e-14
1.03001e-14
1.04072e-15
7.19551e-17
3.35057e-18
1
1
1
1
1
1
1
1
1
1
1
1
1
1
1
1
1
1
1
1
1
1
1
0.935349
0.300869
0.00792593
0.00172735
0.000364034
7.44882e-05
1.50709e-05
3.0216e-06
5.93802e-07
1.13258e-07
2.08798e-08
3.70711e-09
6.30418e-10
1.2099e-10
2.78575e-11
6.3172e-12
1.0069e-12
1.40938e-13
1.92161e-14
2.46106e-15
2.73045e-16
2.18012e-17
1.02257e-18
1
1
1
1
1
1
1
1
1
1
1
1
1
1
1
1
1
1
1
1
1
1
1
0.886608
0.210205
0.00523027
0.00108947
0.00021651
4.10633e-05
7.56329e-06
1.3635e-06
2.4016e-07
4.12312e-08
6.89671e-09
1.11586e-09
1.96127e-10
3.66151e-11
9.46961e-12
1.65154e-12
2.26719e-13
3.14033e-14
4.32599e-15
5.78871e-16
6.99721e-17
6.40535e-18
3.16546e-19
1
1
1
1
1
1
1
1
1
1
1
1
1
1
1
1
1
1
1
1
1
1
1
0.842587
0.154371
0.00368828
0.000731823
0.000137082
2.42506e-05
4.11453e-06
6.75684e-07
1.07743e-07
1.67358e-08
2.53771e-09
3.82061e-10
6.64408e-11
1.59672e-11
3.01285e-12
4.07407e-13
5.36306e-14
7.19172e-15
9.84679e-16
1.35905e-16
1.77515e-17
1.85236e-18
1.01208e-19
1
1
1
1
1
1
1
1
1
1
1
1
1
1
1
1
1
1
1
1
1
1
1
0.808188
0.121211
0.00278727
0.000525832
9.28187e-05
1.53709e-05
2.41981e-06
3.65436e-07
5.32709e-08
7.54562e-09
1.04048e-09
1.56307e-10
2.59368e-11
6.33834e-12
9.28947e-13
1.10018e-13
1.35554e-14
1.72571e-15
2.30456e-16
3.22834e-17
4.51036e-18
5.33525e-19
3.42196e-20
1
1
1
1
1
1
1
1
1
1
1
1
1
1
1
1
1
1
1
1
1
1
1
0.785726
0.103536
0.0022595
0.000406131
6.76175e-05
1.05155e-05
1.54489e-06
2.16243e-07
2.90711e-08
3.78449e-09
4.79022e-10
6.92179e-11
1.40743e-11
2.52302e-12
3.00288e-13
3.30117e-14
3.74731e-15
4.44442e-16
5.66205e-17
7.88134e-18
1.1609e-18
1.54859e-19
1.18793e-20
1
1
1
1
1
1
1
1
1
1
1
1
1
1
1
1
1
1
1
1
1
1
1
0.77384
0.0967499
0.00195957
0.000337227
5.31407e-05
7.80211e-06
1.07703e-06
1.40907e-07
1.76329e-08
2.13043e-09
2.50945e-10
3.47826e-11
7.53147e-12
1.08088e-12
1.11458e-13
1.12548e-14
1.16613e-15
1.26702e-16
1.50198e-17
2.01933e-18
3.06714e-19
4.57666e-20
4.08754e-21
1
1
1
1
1
1
1
1
1
1
1
1
1
1
1
1
1
1
1
1
1
1
1
0.770601
0.0955961
0.00181122
0.000300057
4.5039e-05
6.29153e-06
8.23683e-07
1.01831e-07
1.19992e-08
1.36184e-09
1.5625e-10
1.99521e-11
4.11575e-12
5.19674e-13
4.82122e-14
4.47628e-15
4.22535e-16
4.15801e-17
4.47427e-18
5.6015e-19
8.47126e-20
1.39043e-20
1.41707e-21
1
1
1
1
1
1
1
1
1
1
1
1
1
1
1
1
1
1
1
1
1
1
1
0.792866
0.112053
0.00179546
0.000286923
4.11216e-05
5.48317e-06
6.85133e-07
8.08681e-08
9.08391e-09
9.83426e-10
1.11224e-10
1.31809e-11
2.49367e-12
2.87925e-13
2.47899e-14
2.13357e-15
1.84661e-16
1.64277e-17
1.57573e-18
1.76266e-19
2.51658e-20
4.33896e-21
6.30246e-22
1
1
1
1
1
1
1
1
1
1
1
1
1
1
1
1
1
1
1
1
1
1
1
0.826288
0.136022
0.00183835
0.000285558
3.99546e-05
5.24234e-06
6.43933e-07
7.42355e-08
8.13909e-09
8.6462e-10
9.18915e-11
1.03019e-11
1.69032e-12
1.83736e-13
1.50967e-14
1.21597e-15
9.74516e-17
7.87493e-18
6.68089e-19
6.46856e-20
8.20593e-21
1.18021e-21
4.30161e-22
1
1
1
1
1
1
1
1
1
1
1
1
1
1
1
1
1
1
1
1
1
1
1
0.849485
0.152131
0.00187097
0.000286038
3.991e-05
5.25894e-06
6.49504e-07
7.53491e-08
8.30529e-09
8.79985e-10
9.09168e-11
9.98135e-12
1.54349e-12
1.67237e-13
1.3495e-14
1.05005e-15
8.03023e-17
6.04242e-18
4.54975e-19
3.54752e-20
3.09832e-21
4.26691e-22
3.24123e-22
1.96788e-47
1.70828e-48
8.89544e-50
1.09769e-51
3.13189e-53
1.02978e-54
3.73917e-56
1.44575e-57
5.79508e-59
2.49012e-60
1.65262e-61
8.65182e-63
3.53881e-64
1.39421e-65
5.35108e-67
1.98019e-68
7.039e-70
2.39531e-71
7.77807e-73
2.40222e-74
7.03333e-76
1.94564e-77
5.06622e-79
1.23689e-80
2.81857e-82
5.96506e-84
1.16562e-85
2.08823e-87
3.40096e-89
4.97942e-91
6.45898e-93
7.26878e-95
6.88035e-97
5.21985e-99
2.93193e-101
1.06485e-103
1.92752e-106
7.28393e-107
2.98408e-46
1.67184e-46
1.06028e-47
4.45172e-50
1.09684e-51
3.13038e-53
1.02968e-54
3.73948e-56
1.44576e-57
1.31707e-58
1.54183e-59
7.85626e-61
2.92244e-62
1.10543e-63
4.06932e-65
1.44581e-66
4.93972e-68
1.61707e-69
5.05615e-71
1.50513e-72
4.25124e-74
1.13562e-75
2.85785e-77
6.75022e-79
1.48961e-80
3.05557e-82
5.79199e-84
1.00708e-85
1.59227e-87
2.26175e-89
2.8409e-91
3.08283e-93
2.79046e-95
1.99336e-97
1.02119e-99
3.14469e-102
3.13179e-105
7.28377e-107
3.76822e-44
1.47424e-44
6.22383e-46
4.5087e-48
1.1195e-49
3.18276e-51
1.03326e-52
3.68813e-54
1.39932e-55
5.65326e-57
5.29525e-58
2.2943e-59
7.87461e-61
2.7289e-62
9.19666e-64
2.99294e-65
9.37161e-67
2.81321e-68
8.07007e-70
2.20521e-71
5.72068e-73
1.4044e-74
3.25031e-76
7.06563e-78
1.43629e-79
2.71659e-81
4.75394e-83
7.64193e-85
1.11899e-86
1.47547e-88
1.72586e-90
1.75314e-92
1.49817e-94
1.02539e-96
5.15643e-99
1.60494e-101
1.53799e-104
2.957e-105
2.52038e-42
7.69514e-43
2.42536e-44
1.94385e-46
5.12133e-48
1.48753e-49
4.64575e-51
1.52186e-52
5.12011e-54
1.7788e-55
1.09647e-56
4.00153e-58
1.25875e-59
3.93642e-61
1.19643e-62
3.51353e-64
9.9333e-66
2.69381e-67
6.98511e-69
1.72641e-70
4.0535e-72
9.01298e-74
1.89087e-75
3.7294e-77
6.88617e-79
1.18467e-80
1.88881e-82
2.77226e-84
3.71689e-86
4.5061e-88
4.87628e-90
4.62899e-92
3.75962e-94
2.51738e-96
1.30438e-98
4.62721e-101
6.18404e-104
2.24843e-104
1.11218e-40
2.79651e-41
7.14195e-43
5.07954e-45
1.28672e-46
3.5232e-48
1.02191e-49
3.07694e-51
9.46074e-53
3.06325e-54
1.73924e-55
5.42286e-57
1.52549e-58
4.29042e-60
1.17223e-61
3.0961e-63
7.87636e-65
1.92305e-66
4.49166e-68
1.0005e-69
2.11829e-71
4.24971e-73
8.04996e-75
1.43464e-76
2.39582e-78
3.73184e-80
5.39454e-82
7.19146e-84
8.77838e-86
9.72331e-88
9.66408e-90
8.4957e-92
6.47464e-94
4.15436e-96
2.13477e-98
7.96341e-101
1.34765e-103
6.85758e-104
3.58525e-39
7.73631e-40
1.70908e-41
1.09856e-43
2.67932e-45
6.93856e-47
1.87857e-48
5.23222e-50
1.48392e-51
4.38674e-53
2.25258e-54
6.29231e-56
1.59635e-57
4.04328e-59
9.95061e-61
2.36808e-62
5.42992e-64
1.19537e-65
2.51824e-67
5.06094e-69
9.67096e-71
1.75171e-72
2.99696e-74
4.82599e-76
7.28561e-78
1.02651e-79
1.34323e-81
1.62266e-83
1.79754e-85
1.81099e-87
1.64284e-89
1.32527e-91
9.34527e-94
5.61782e-96
2.75513e-98
1.00734e-100
1.76699e-103
1.27272e-103
9.01691e-38
1.72904e-38
3.48079e-40
2.0723e-42
4.91206e-44
1.21483e-45
3.09965e-47
8.05875e-49
2.12767e-50
5.79365e-52
2.70068e-53
6.80731e-55
1.56697e-56
3.5943e-58
8.00905e-60
1.72573e-61
3.5828e-63
7.14178e-65
1.36237e-66
2.47931e-68
4.29013e-70
7.0362e-72
1.08994e-73
1.58893e-75
2.17136e-77
2.76904e-79
3.27933e-81
3.58548e-83
3.5955e-85
3.28078e-87
2.69802e-89
1.97599e-91
1.26719e-93
6.93616e-96
3.08937e-98
1.00642e-100
2.05571e-103
1.83175e-103
1.8517e-36
3.25595e-37
6.2259e-39
3.5312e-41
8.2384e-43
1.9706e-44
4.79742e-46
1.17821e-47
2.93226e-49
7.44116e-51
3.16827e-52
7.27512e-54
1.53247e-55
3.20868e-57
6.52085e-59
1.28076e-60
2.42262e-62
4.39809e-64
7.63772e-66
1.26473e-67
1.99019e-69
2.96627e-71
4.1722e-73
5.51695e-75
6.82792e-77
7.87498e-79
8.42068e-81
8.29598e-83
7.47723e-85
6.11209e-87
4.48121e-89
2.90178e-91
1.71462e-93
8.79928e-96
3.74611e-98
1.19852e-100
3.16916e-103
2.46237e-103
3.20804e-35
5.3244e-36
9.99149e-38
5.5738e-40
1.30001e-41
3.05323e-43
7.19646e-45
1.69312e-46
4.04676e-48
1.10891e-49
3.80919e-51
7.97964e-53
1.56302e-54
3.01672e-56
5.64141e-58
1.01821e-59
1.76772e-61
2.9418e-63
4.67713e-65
7.0774e-67
1.0153e-68
1.40425e-70
1.85681e-72
2.30532e-74
2.67855e-76
2.89866e-78
2.90815e-80
2.69122e-82
2.28405e-84
1.7664e-86
1.23569e-88
7.74797e-91
4.29973e-93
2.0674e-95
8.26186e-98
2.48751e-100
5.92352e-103
3.59413e-103
4.80242e-34
7.72736e-35
1.46847e-36
8.29292e-39
1.9692e-40
4.62043e-42
1.07192e-43
2.45444e-45
5.74485e-47
1.83955e-48
4.84819e-50
9.33623e-52
1.72341e-53
3.10213e-55
5.39417e-57
9.02936e-59
1.44929e-60
2.305e-62
3.58687e-64
5.30413e-66
7.42917e-68
9.8228e-70
1.22245e-71
1.42735e-73
1.55803e-75
1.58362e-77
1.49214e-79
1.29687e-81
1.03397e-83
7.51467e-86
4.94276e-88
2.91521e-90
1.52176e-92
6.87673e-95
2.57692e-97
7.24908e-100
1.49756e-102
6.45748e-103
6.32516e-33
1.01161e-33
2.02419e-35
1.17527e-37
2.90009e-39
6.93139e-41
1.61216e-42
3.65819e-44
8.55581e-46
3.3492e-47
6.70037e-49
1.19859e-50
2.11394e-52
3.59807e-54
5.88512e-56
9.62103e-58
1.58337e-59
2.48636e-61
3.7121e-63
5.25434e-65
7.03466e-67
8.88532e-69
1.05579e-70
1.17652e-72
1.22524e-74
1.18783e-76
1.06732e-78
8.84561e-81
6.72447e-83
4.65945e-85
2.92074e-87
1.63993e-89
8.13004e-92
3.47372e-94
1.22197e-96
3.19578e-99
5.64183e-102
1.58995e-102
7.42624e-32
1.21022e-32
2.57414e-34
1.59137e-36
4.17089e-38
1.03691e-39
2.46778e-41
5.72981e-43
1.34092e-44
5.10432e-46
9.93161e-48
1.72964e-49
2.95133e-51
4.82443e-53
8.05147e-55
1.35964e-56
2.19039e-58
3.35741e-60
4.88464e-62
6.73166e-64
8.76824e-66
1.0768e-67
1.24336e-69
1.34583e-71
1.3609e-73
1.2807e-75
1.11682e-77
8.98074e-80
6.62234e-82
4.44841e-84
2.69988e-86
1.46411e-88
6.97797e-91
2.84395e-93
9.42867e-96
2.28711e-98
3.45147e-101
5.8907e-102
7.73131e-31
1.33161e-31
3.0154e-33
2.04594e-35
5.81862e-37
1.53467e-38
3.80831e-40
9.25111e-42
2.35631e-43
8.31805e-45
1.59969e-46
2.78039e-48
4.68811e-50
7.78012e-52
1.37401e-53
2.31929e-55
3.72411e-57
5.67918e-59
8.21178e-61
1.12375e-62
1.45237e-64
1.76866e-66
2.02408e-68
2.17048e-70
2.17358e-72
2.02517e-74
1.74804e-76
1.39094e-78
1.01443e-80
6.73321e-83
4.03031e-85
2.14772e-87
9.99387e-90
3.93439e-92
1.23933e-94
2.79236e-97
3.62647e-100
3.56786e-101
7.51763e-30
1.43774e-30
3.3547e-32
3.01378e-34
7.75552e-36
2.22123e-37
5.86663e-39
1.54391e-40
6.48878e-42
1.4765e-43
2.75699e-45
4.96608e-47
8.47804e-49
1.53159e-50
2.76846e-52
4.7628e-54
7.78729e-56
1.2078e-57
1.77443e-59
2.46512e-61
3.23213e-63
3.99071e-65
4.62838e-67
5.02795e-69
5.09946e-71
4.80775e-73
4.19764e-75
3.37754e-77
2.48965e-79
1.66826e-81
1.00551e-83
5.37398e-86
2.4896e-88
9.63383e-91
2.92397e-93
6.16561e-96
7.02784e-99
3.75227e-100
1.89461e-28
3.34226e-29
5.34404e-31
9.78186e-33
2.62862e-34
7.29949e-36
1.90687e-37
4.8127e-39
1.19367e-40
2.55126e-42
5.11852e-44
9.70587e-46
1.73147e-47
3.387e-49
6.40153e-51
1.14775e-52
1.95409e-54
3.15256e-56
4.81336e-58
6.94427e-60
9.44955e-62
1.2103e-63
1.45555e-65
1.63915e-67
1.72299e-69
1.68439e-71
1.52496e-73
1.27211e-75
9.71652e-78
6.73996e-80
4.19816e-82
2.30608e-84
1.08768e-86
4.24598e-89
1.27193e-91
2.56439e-94
2.41654e-97
7.12041e-99
1.96607e-27
2.17373e-28
4.60335e-30
1.27611e-31
3.80859e-33
9.71281e-35
2.17814e-36
5.59602e-38
1.39888e-39
3.26123e-41
7.13408e-43
1.4675e-44
2.83115e-46
5.80522e-48
1.16969e-49
2.23446e-51
4.0503e-53
6.95093e-55
1.12809e-56
1.72892e-58
2.49804e-60
3.39593e-62
4.33364e-64
5.17764e-66
5.77382e-68
5.98818e-70
5.75157e-72
5.08984e-74
4.12309e-76
3.03089e-78
1.99721e-80
1.15848e-82
5.75246e-85
2.33743e-87
7.19349e-90
1.43744e-92
-8.25843e-96
2.63678e-97
1
1
1
1
1
1
1
1
1
1
1
1
1
1
1
1
1
1
1
1
1
1
1
0.859727
0.158331
0.0018622
0.000270465
3.79968e-05
5.15235e-06
6.63053e-07
8.06613e-08
9.32861e-09
1.03107e-09
1.096e-10
1.2731e-11
1.85024e-12
2.05772e-13
1.7018e-14
1.32377e-15
1.00702e-16
7.42227e-18
5.32778e-19
3.81578e-20
3.04405e-21
4.05552e-22
1.5214e-22
1
1
1
1
1
1
1
1
1
1
1
1
1
1
1
1
1
1
1
1
1
1
1
0.844778
0.140693
0.00159172
0.000217945
2.97497e-05
4.0363e-06
5.31671e-07
6.72097e-08
8.15687e-09
9.47617e-10
1.12614e-10
1.39435e-11
2.45968e-12
2.9981e-13
2.6665e-14
2.30153e-15
1.95152e-16
1.6238e-17
1.32853e-18
1.09157e-19
9.58532e-21
9.81819e-22
2.51998e-22
1
1
1
1
1
1
1
1
1
1
1
1
1
1
1
1
1
1
1
1
1
1
1
0.814203
0.113909
0.00129109
0.000166127
2.15238e-05
2.824e-06
3.67145e-07
4.66088e-08
5.75062e-09
6.83898e-10
9.20095e-11
1.29854e-11
2.59502e-12
3.08e-13
2.69779e-14
2.42323e-15
2.12987e-16
1.83966e-17
1.6095e-18
1.47551e-19
1.44207e-20
1.53183e-21
2.21335e-22
1
1
1
1
1
1
1
1
1
1
1
1
1
1
1
1
1
1
1
1
1
1
1
0.778347
0.0883973
0.000998309
0.000122389
1.49639e-05
1.86678e-06
2.33906e-07
2.90416e-08
3.55623e-09
4.21276e-10
6.04355e-11
1.1676e-11
2.01903e-12
2.18199e-13
2.06636e-14
1.94316e-15
1.79053e-16
1.63011e-17
1.47947e-18
1.35775e-19
1.30272e-20
1.3449e-21
1.50587e-22
1
1
1
1
1
1
1
1
1
1
1
1
1
1
1
1
1
1
1
1
1
1
1
0.738696
0.0661242
0.000748617
8.67875e-05
9.99444e-06
1.17837e-06
1.40701e-07
1.68392e-08
2.00558e-09
2.50455e-10
3.50101e-11
8.21339e-12
1.20994e-12
1.21731e-13
1.182e-14
1.12987e-15
1.05522e-16
9.70003e-18
8.83934e-19
8.06876e-20
7.50633e-21
7.1723e-22
6.84956e-23
1
1
1
1
1
1
1
1
1
1
1
1
1
1
1
1
1
1
1
1
1
1
1
0.697549
0.0479449
0.000547958
5.963e-05
6.44226e-06
7.15056e-07
8.08719e-08
9.24475e-09
1.05861e-09
1.40136e-10
1.9367e-11
4.70976e-12
6.25578e-13
5.94014e-14
5.76247e-15
5.46324e-16
5.05011e-17
4.57301e-18
4.08506e-19
3.62805e-20
3.22048e-21
2.85468e-22
2.50011e-23
1
1
1
1
1
1
1
1
1
1
1
1
1
1
1
1
1
1
1
1
1
1
1
0.656438
0.0336634
0.000395278
4.01424e-05
4.05122e-06
4.21803e-07
4.49941e-08
4.8904e-09
5.34075e-10
7.30037e-11
1.36466e-11
2.50331e-12
2.78887e-13
2.66175e-14
2.54201e-15
2.36791e-16
2.14989e-17
1.90801e-18
1.66177e-19
1.42593e-20
1.20786e-21
1.00655e-22
8.2091e-24
1
1
1
1
1
1
1
1
1
1
1
1
1
1
1
1
1
1
1
1
1
1
1
0.615871
0.0231036
0.000284826
2.69045e-05
2.52786e-06
2.46028e-07
2.46523e-08
2.53887e-09
2.80671e-10
3.62124e-11
8.35182e-12
1.22291e-12
1.19562e-13
1.12197e-14
1.04458e-15
9.49034e-17
8.40927e-18
7.27702e-19
6.161e-20
5.11078e-21
4.15189e-22
3.28638e-23
2.52937e-24
1
1
1
1
1
1
1
1
1
1
1
1
1
1
1
1
1
1
1
1
1
1
1
0.576723
0.0151986
0.000206169
1.81371e-05
1.58595e-06
1.44033e-07
1.35161e-08
1.30963e-09
1.48633e-10
1.78299e-11
4.38914e-12
5.59552e-13
4.9826e-14
4.53829e-15
4.08909e-16
3.6019e-17
3.09916e-18
2.60501e-19
2.13959e-20
1.7166e-21
1.34229e-22
1.01646e-23
7.45368e-25
1
1
1
1
1
1
1
1
1
1
1
1
1
1
1
1
1
1
1
1
1
1
1
0.538996
0.00960966
0.00015172
1.24789e-05
1.01667e-06
8.60427e-08
7.53909e-09
6.84786e-10
7.9008e-11
9.8851e-12
2.19784e-12
2.43883e-13
2.04693e-14
1.79579e-15
1.55514e-16
1.32041e-17
1.09769e-18
8.92669e-20
7.09485e-21
5.50185e-22
4.1477e-23
3.01686e-24
2.11955e-25
1
1
1
1
1
1
1
1
1
1
1
1
1
1
1
1
1
1
1
1
1
1
1
0.502915
0.00584368
0.000113564
8.77754e-06
6.68478e-07
5.27788e-08
4.31814e-09
3.69834e-10
4.20079e-11
7.09004e-12
1.10719e-12
1.02359e-13
8.42283e-15
7.05328e-16
5.83562e-17
4.74892e-18
3.79456e-19
2.97236e-20
2.27839e-21
1.70434e-22
1.23823e-23
8.66124e-25
5.84369e-26
1
1
1
1
1
1
1
1
1
1
1
1
1
1
1
1
1
1
1
1
1
1
1
0.468594
0.00329429
8.55648e-05
6.23703e-06
4.45951e-07
3.29589e-08
2.52552e-09
2.12894e-10
2.2254e-11
4.4603e-12
5.47437e-13
4.43039e-14
3.48414e-15
2.76929e-16
2.17882e-17
1.69133e-18
1.29288e-19
9.71268e-21
7.15344e-22
5.14697e-23
3.59706e-24
2.41789e-25
1.56666e-26
1
1
1
1
1
1
1
1
1
1
1
1
1
1
1
1
1
1
1
1
1
1
1
0.43579
0.00200491
6.5089e-05
4.47278e-06
3.00593e-07
2.08267e-08
1.49896e-09
1.23578e-10
1.17844e-11
2.5143e-12
2.6629e-13
1.93624e-14
1.4449e-15
1.08681e-16
8.10704e-18
5.98268e-19
4.35919e-20
3.12914e-21
2.20665e-22
1.52245e-23
1.02094e-24
6.5827e-26
4.09065e-27
1
1
1
1
1
1
1
1
1
1
1
1
1
1
1
1
1
1
1
1
1
1
1
0.404988
0.00113138
4.9816e-05
3.20109e-06
2.02268e-07
1.31583e-08
8.9296e-10
7.19639e-11
6.31183e-12
1.36108e-12
1.27353e-13
8.47095e-15
5.98328e-16
4.25011e-17
2.99954e-18
2.09924e-19
1.454e-20
9.94396e-22
6.69446e-23
4.41633e-24
2.83439e-25
1.74906e-26
1.04033e-27
1
1
1
1
1
1
1
1
1
1
1
1
1
1
1
1
1
1
1
1
1
1
1
0.376016
0.000653597
3.80444e-05
2.26623e-06
1.34491e-07
8.21824e-09
5.25767e-10
4.17309e-11
3.57535e-12
7.20202e-13
5.94938e-14
3.68698e-15
2.46215e-16
1.64863e-17
1.099e-18
7.28021e-20
4.78311e-21
3.10934e-22
1.99351e-23
1.25441e-24
7.68682e-26
4.5296e-27
2.57305e-28
1
1
1
1
1
1
1
1
1
1
1
1
1
1
1
1
1
1
1
1
1
1
1
0.348697
0.00052284
2.84932e-05
1.58855e-06
8.83103e-08
5.06133e-09
3.04071e-10
2.37908e-11
2.61292e-12
3.7765e-13
2.64829e-14
1.59056e-15
1.00105e-16
6.30956e-18
3.96655e-19
2.48287e-20
1.54448e-21
9.5248e-23
5.80387e-24
3.47628e-25
2.0297e-26
1.13977e-27
6.16993e-29
1
1
1
1
1
1
1
1
1
1
1
1
1
1
1
1
1
1
1
1
1
1
1
0.323023
0.000416787
2.12341e-05
1.10538e-06
5.73954e-08
3.08009e-09
1.72772e-10
1.31934e-11
1.90963e-12
1.94239e-13
1.17187e-14
6.75696e-16
3.99635e-17
2.36758e-18
1.40146e-19
8.2757e-21
4.86594e-22
2.84196e-23
1.64302e-24
9.35103e-26
5.19301e-27
2.77386e-28
1.42799e-29
1
1
1
1
1
1
1
1
1
1
1
1
1
1
1
1
1
1
1
1
1
1
1
0.298951
0.000314244
1.57461e-05
7.63543e-07
3.69201e-08
1.84945e-09
9.67341e-11
7.09712e-12
1.19847e-12
9.62511e-14
5.1485e-15
2.80463e-16
1.55534e-17
8.64707e-19
4.81183e-20
2.67629e-21
1.48511e-22
8.20224e-24
4.49244e-25
2.42601e-26
1.27955e-27
6.49119e-29
3.17191e-30
1
1
1
1
1
1
1
1
1
1
1
1
1
1
1
1
1
1
1
1
1
1
1
0.276362
0.000223725
1.16006e-05
5.22564e-07
2.34571e-08
1.09278e-09
5.52782e-11
3.69346e-12
6.69549e-13
4.59038e-14
2.2124e-15
1.13061e-16
5.86305e-18
3.05222e-19
1.59351e-20
8.33273e-22
4.35681e-23
2.27214e-24
1.17746e-25
6.02592e-27
3.01495e-28
1.45071e-29
6.71726e-31
1
1
1
1
1
1
1
1
1
1
1
1
1
1
1
1
1
1
1
1
1
1
1
0.255103
0.00016547
8.47869e-06
3.53665e-07
1.46926e-08
6.32851e-10
3.1184e-11
1.87861e-12
3.50493e-13
2.10604e-14
9.23751e-16
4.40445e-17
2.12815e-18
1.03425e-19
5.05257e-21
2.4784e-22
1.21868e-23
5.99212e-25
2.93432e-26
1.42167e-27
6.74103e-29
3.07324e-30
1.34634e-31
1
1
1
1
1
1
1
1
1
1
1
1
1
1
1
1
1
1
1
1
1
1
1
0.235048
0.000124307
6.13857e-06
2.36201e-07
9.041e-09
3.58666e-10
1.71901e-11
9.65652e-13
1.74599e-13
9.24363e-15
3.72401e-16
1.64847e-17
7.3891e-19
3.33982e-20
1.52178e-21
6.9835e-23
3.22257e-24
1.49147e-25
6.8936e-27
3.15919e-28
1.41857e-29
6.12247e-31
2.53407e-32
1
1
1
1
1
1
1
1
1
1
1
1
1
1
1
1
1
1
1
1
1
1
1
0.216086
9.35633e-05
4.39453e-06
1.55283e-07
5.4352e-09
1.97821e-10
9.21463e-12
6.54202e-13
8.42267e-14
3.77404e-15
1.4409e-16
5.88627e-18
2.43488e-19
1.019e-20
4.31442e-22
1.8468e-23
7.97998e-25
3.47116e-26
1.51284e-27
6.55411e-29
2.78591e-30
1.13765e-31
4.44315e-33
1
1
1
1
1
1
1
1
1
1
1
1
1
1
1
1
1
1
1
1
1
1
1
0.198115
7.00141e-05
3.10387e-06
1.00142e-07
3.177e-09
1.0469e-10
4.72743e-12
5.62531e-13
3.96529e-14
1.46754e-15
5.31624e-17
1.98716e-18
7.53959e-20
2.90638e-21
1.13879e-22
4.53334e-24
1.83059e-25
7.47555e-27
3.07088e-28
1.25771e-29
5.06138e-31
1.95535e-32
7.19631e-34
1
1
1
1
1
1
1
1
1
1
1
1
1
1
1
1
1
1
1
1
1
1
1
0.18104
5.18052e-05
2.15688e-06
6.30697e-08
1.79216e-09
5.35238e-11
2.27876e-12
3.66237e-13
1.75845e-14
5.56869e-16
1.84244e-17
6.25024e-19
2.16119e-20
7.63471e-22
2.7583e-23
1.01883e-24
3.84071e-26
1.47234e-27
5.70425e-29
2.21074e-30
8.43102e-32
3.0829e-33
1.06796e-34
1
1
1
1
1
1
1
1
1
1
1
1
1
1
1
1
1
1
1
1
1
1
1
0.16478
3.77133e-05
1.46947e-06
3.85942e-08
9.67192e-10
2.5744e-11
1.02454e-12
1.86046e-13
7.2079e-15
1.97136e-16
5.86895e-18
1.7924e-19
5.61437e-21
1.8103e-22
6.01788e-24
2.0616e-25
7.26154e-27
2.61788e-28
9.58763e-30
3.52467e-31
1.27649e-32
4.42338e-34
1.44166e-35
1
1
1
1
1
1
1
1
1
1
1
1
1
1
1
1
1
1
1
1
1
1
1
0.149268
2.6857e-05
9.77094e-07
2.2781e-08
4.92786e-10
1.13946e-11
4.22973e-13
8.40147e-14
2.68509e-15
6.34025e-17
1.67434e-18
4.56196e-20
1.28756e-21
3.78167e-23
1.15746e-24
3.68719e-26
1.21813e-27
4.1482e-29
1.44261e-30
5.05154e-32
1.74307e-33
5.73529e-35
1.75808e-36
1
1
1
1
1
1
1
1
1
1
1
1
1
1
1
1
1
1
1
1
1
1
1
0.134435
1.85777e-05
6.30212e-07
1.27587e-08
2.32793e-10
4.44499e-12
1.58204e-13
3.35205e-14
8.82548e-16
1.79107e-17
4.13262e-19
9.9609e-21
2.52702e-22
6.77579e-24
1.91966e-25
5.72643e-27
1.78796e-28
5.7944e-30
1.92658e-31
6.46304e-33
2.13405e-34
6.68319e-36
1.92572e-37
1
1
1
1
1
1
1
1
1
1
1
1
1
1
1
1
1
1
1
1
1
1
1
0.120216
1.23651e-05
3.90832e-07
6.61688e-09
9.69049e-11
1.58379e-12
1.71906e-13
1.18163e-14
2.28229e-16
4.23149e-18
8.41606e-20
1.78992e-21
4.10448e-23
1.01507e-24
2.69458e-26
7.62017e-28
2.27453e-29
7.0866e-31
2.27219e-32
7.35264e-34
2.3344e-35
6.97405e-37
1.88627e-38
1
1
1
1
1
1
1
1
1
1
1
1
1
1
1
1
1
1
1
1
1
1
1
0.106556
7.80722e-06
2.30245e-07
3.07464e-09
3.13656e-11
4.83226e-13
1.44598e-13
3.54902e-15
5.00188e-17
7.79971e-19
1.33279e-20
2.53548e-22
5.36386e-24
1.25019e-25
3.17065e-27
8.64257e-29
2.50082e-30
7.57741e-32
2.36463e-33
7.43261e-35
2.27922e-36
6.50537e-38
1.64662e-39
1
1
1
1
1
1
1
1
1
1
1
1
1
1
1
1
1
1
1
1
1
1
1
0.0934214
4.56975e-06
1.26695e-07
1.19728e-09
5.70014e-12
5.37002e-14
6.19387e-14
7.3921e-16
7.85765e-18
1.01801e-19
1.55686e-21
2.76597e-23
5.59135e-25
1.26046e-26
3.1215e-28
8.35714e-30
2.38016e-31
7.09969e-33
2.17728e-34
6.6895e-36
1.98803e-37
5.42095e-39
1.27708e-40
0.999997
0.999998
0.999999
1
1
1
1
1
1
1
1
1
1
1
1
1
1
1
1
1
1
1
1
0.0808153
2.37672e-06
6.32747e-08
2.91675e-10
-1.44991e-12
-1.46818e-15
1.16958e-14
8.81039e-17
8.08107e-19
9.57434e-21
1.44999e-22
2.54599e-24
5.04255e-26
1.10694e-27
2.69568e-29
7.14371e-31
2.011e-32
5.91368e-34
1.77938e-35
5.36648e-37
1.55007e-38
4.03395e-40
8.76449e-42
0.999987
0.999991
0.999995
0.999997
0.999998
0.999999
0.999999
0.999999
0.999999
0.999999
1
0.999999
0.999999
0.999999
0.999999
0.999999
0.999999
0.999999
0.999999
0.999999
0.999999
0.999999
0.999999
0.0687022
9.87405e-07
2.70398e-08
8.69424e-12
-1.52591e-12
3.58364e-14
1.03991e-15
8.35156e-18
8.11362e-20
9.80364e-22
1.46612e-23
2.50857e-25
4.81665e-27
1.02318e-28
2.40303e-30
6.12534e-32
1.65683e-33
4.67232e-35
1.34128e-36
3.93644e-38
1.09447e-39
2.67328e-41
5.28021e-43
0.99993
0.999953
0.999972
0.999984
0.99999
0.999993
0.999995
0.999996
0.999996
0.999996
0.999996
0.999996
0.999996
0.999996
0.999995
0.999995
0.999995
0.999994
0.999994
0.999993
0.999993
0.999993
0.999992
0.0567003
1.88791e-07
8.2618e-09
-2.8953e-11
-2.68139e-13
2.74081e-15
1.01345e-16
9.08985e-19
8.97871e-21
1.0628e-22
1.52744e-24
2.51042e-26
4.63967e-28
9.50714e-30
2.15273e-31
5.28963e-33
1.37981e-34
3.74937e-36
1.03415e-37
2.87169e-39
7.42621e-41
1.63583e-42
2.85145e-44
0.999634
0.999741
0.999838
0.999899
0.999933
0.999951
0.999961
0.999967
0.99997
0.999971
0.999971
0.99997
0.999969
0.999967
0.999965
0.999963
0.999961
0.999959
0.999956
0.999953
0.999951
0.999948
0.999944
0.0445505
-2.05563e-07
-7.52663e-12
1.81554e-10
-2.30371e-16
6.942e-16
1.17935e-17
1.03551e-19
9.83067e-22
1.1145e-23
1.53712e-25
2.42852e-27
4.32323e-29
8.54996e-31
1.87236e-32
4.45581e-34
1.12606e-35
2.96128e-37
7.87937e-39
2.08674e-40
5.07076e-42
1.02275e-43
1.51901e-45
0.998115
0.998597
0.999058
0.999366
0.999551
0.999658
0.999719
0.999752
0.999769
0.999776
0.999775
0.999771
0.999763
0.999753
0.999742
0.999729
0.999715
0.9997
0.999684
0.999667
0.999651
0.999634
0.99961
0.0352903
-4.30835e-07
-4.80644e-10
-1.16839e-11
-8.04387e-15
2.7241e-16
1.32194e-18
1.13203e-20
1.03531e-22
1.12692e-24
1.49269e-26
2.26888e-28
3.89446e-30
7.442e-32
1.57739e-33
3.6373e-35
8.90912e-37
2.26829e-38
5.8231e-40
1.47779e-41
3.39154e-43
6.29349e-45
8.08627e-47
0.983267
0.992042
0.994544
0.996054
0.997027
0.997616
0.997963
0.998158
0.998257
0.998294
0.99829
0.998261
0.998213
0.998152
0.998083
0.998005
0.997921
0.997832
0.997737
0.997639
0.99754
0.997445
0.997289
0.0323777
-5.09898e-07
-8.74947e-11
-5.95787e-13
-2.52184e-15
2.14437e-17
1.39789e-19
1.17026e-21
1.0342e-23
1.08409e-25
1.383e-27
2.02796e-29
3.36492e-31
6.22768e-33
1.28031e-34
2.86603e-36
6.81544e-38
1.68249e-39
4.17283e-41
1.01507e-42
2.20004e-44
3.75408e-46
4.18654e-48
0.518322
0.605737
0.684004
0.747728
0.793127
0.822418
0.840159
0.850007
0.854623
0.855828
0.85483
0.852401
0.849026
0.844996
0.840488
0.835597
0.830362
0.82484
0.819066
0.812978
0.806831
0.799494
0.787147
0.0307793
-2.99513e-07
-1.42619e-12
-3.32428e-14
4.46586e-18
1.69801e-18
1.33192e-20
1.10482e-22
9.54001e-25
9.71964e-27
1.20321e-28
1.71253e-30
2.76076e-32
4.96949e-34
9.94399e-36
2.16737e-37
5.01639e-39
1.20327e-40
2.88822e-42
6.74398e-44
1.38192e-45
2.17009e-47
2.0956e-49
0.00177213
0.0219048
0.047361
0.0762698
0.1031
0.12464
0.139624
0.148693
0.153159
0.154357
0.15337
0.150973
0.147687
0.143842
0.139639
0.135213
0.130687
0.12613
0.121517
0.116811
0.112256
0.106118
0.119919
0.0106424
-9.32163e-10
-1.05447e-16
1.31248e-14
2.99724e-17
1.33454e-19
1.05118e-21
9.00125e-24
7.81385e-26
7.89789e-28
9.63035e-30
1.34542e-31
2.12539e-33
3.74581e-35
7.33409e-37
1.56303e-38
3.5332e-40
8.25807e-42
1.92281e-43
4.31753e-45
8.37604e-47
1.2117e-48
1.01171e-50
2.29991e-47
2.29991e-47
1.46964e-44
2.97911e-42
1.96812e-40
1.08482e-38
5.28409e-37
2.28025e-35
8.89739e-34
3.21988e-32
1.13084e-30
3.90045e-29
1.31346e-27
4.39934e-26
1.44291e-24
4.53238e-23
1.3417e-21
3.68233e-20
9.2423e-19
2.10385e-17
4.25119e-16
5.50939e-15
2.46308e-14
3.92202e-13
3.1806e-10
2.56499e-13
1.86878e-15
3.53077e-19
3.92009e-21
5.45129e-23
5.69344e-25
5.33609e-27
5.58746e-29
6.90156e-31
9.64682e-33
1.51374e-34
2.6383e-36
5.09274e-38
1.06746e-39
2.36748e-41
5.41155e-43
1.22583e-44
2.65294e-46
4.88109e-48
6.51272e-50
4.69329e-52
1.3573e-47
1.72773e-47
1.83618e-46
7.9679e-44
2.47543e-39
4.20964e-37
3.13118e-35
1.59922e-33
6.43325e-32
2.1345e-30
5.76565e-29
1.09505e-27
1.08205e-26
3.36818e-25
1.10224e-23
3.44342e-22
1.01046e-20
2.74461e-19
6.70487e-18
2.13511e-15
5.8033e-14
1.81832e-13
4.14946e-13
3.6636e-12
1.13008e-11
1.75651e-14
2.95164e-18
1.43562e-20
1.09675e-22
1.16204e-24
1.71736e-26
2.58424e-28
3.20447e-30
4.2497e-32
6.15002e-34
9.7985e-36
1.71431e-37
3.2974e-39
6.85115e-41
1.49978e-42
3.36813e-44
7.44912e-46
1.55811e-47
2.72439e-49
3.35768e-51
2.08356e-53
9.34156e-48
2.22753e-46
5.29519e-44
6.35428e-44
1.46931e-40
3.74144e-38
3.85102e-36
2.51996e-34
1.24373e-32
5.03035e-31
1.74127e-29
5.23176e-28
1.18593e-26
1.97093e-25
2.72696e-24
2.7483e-23
9.93711e-23
-3.59288e-21
-1.24138e-19
7.31089e-18
1.63304e-15
1.93861e-14
5.72208e-14
6.46754e-14
2.93303e-15
2.53573e-17
1.5587e-19
1.32869e-21
1.02288e-23
7.91171e-26
6.44896e-28
6.50739e-30
1.13084e-31
2.05154e-33
3.33984e-35
5.62158e-37
1.01105e-38
1.96802e-40
4.09702e-42
8.92133e-44
1.97984e-45
4.29399e-47
8.70928e-49
1.45075e-50
1.65433e-52
8.81322e-55
3.50746e-48
9.46296e-48
1.28881e-45
-1.69986e-41
-1.30896e-39
-4.93508e-38
-1.37599e-36
-2.82211e-35
-4.74754e-34
-2.09241e-32
-1.08573e-30
-5.44161e-29
-1.88766e-27
-3.94949e-26
-7.28283e-25
-1.18687e-23
-1.73114e-22
-2.27526e-21
-2.60776e-20
4.83399e-20
1.19302e-17
1.96969e-16
6.74069e-16
8.00429e-16
2.38253e-18
1.05344e-18
1.00068e-20
1.05225e-22
8.33027e-25
6.50103e-27
5.12588e-29
4.59098e-31
4.92011e-33
6.39126e-35
1.36638e-36
2.73736e-38
5.2861e-40
1.06696e-41
2.2597e-43
4.94524e-45
1.09247e-46
2.33603e-48
4.61248e-50
7.3404e-52
7.75983e-54
3.53393e-56
6.05106e-50
3.38169e-48
6.0133e-46
6.62348e-44
3.89482e-42
1.75983e-40
6.57626e-39
2.07923e-37
5.6887e-36
1.37125e-34
2.94608e-33
5.69505e-32
9.91493e-31
1.54764e-29
2.19807e-28
2.85735e-27
3.23565e-26
3.15913e-25
2.71111e-24
9.99921e-22
9.00438e-20
1.46109e-18
4.92805e-18
5.87089e-18
1.1484e-19
1.59858e-20
6.67539e-22
-7.20748e-24
5.84303e-26
4.52756e-28
3.59198e-30
3.22356e-32
3.41092e-34
4.14197e-36
5.64631e-38
9.71565e-40
2.33452e-41
5.14298e-43
1.13461e-44
2.53165e-46
5.62051e-48
1.19281e-49
2.30357e-51
3.51399e-53
3.45135e-55
1.33542e-57
-4.65141e-52
1.45038e-51
-3.31585e-47
-5.32162e-47
-3.75515e-45
-6.25954e-44
-1.14823e-42
-1.98198e-41
-1.78379e-40
-2.31155e-38
-1.31474e-36
-7.0678e-35
-2.89294e-33
-6.87941e-32
-1.23449e-30
-2.11825e-29
-3.26142e-28
-4.31146e-27
-5.38435e-26
5.57144e-24
2.94845e-22
4.78409e-21
1.70639e-20
2.22609e-20
4.255e-21
2.79069e-22
3.13872e-23
3.81035e-25
3.50245e-27
2.7621e-29
2.216e-31
2.02589e-33
2.16156e-35
2.58554e-37
3.52061e-39
5.30715e-41
8.98173e-43
2.0936e-44
5.08921e-46
1.18333e-47
2.67474e-49
5.68168e-51
1.07935e-52
1.5844e-54
1.4494e-56
4.72128e-59
-2.78748e-54
-6.78557e-52
-6.08645e-50
-2.74786e-48
-6.20624e-47
-1.56147e-45
-3.82266e-44
-8.48476e-43
-2.27428e-41
-6.34473e-40
-2.1219e-38
-6.96076e-37
-1.52822e-35
-2.6262e-34
-3.98389e-33
-5.39225e-32
-6.5962e-31
-7.3517e-30
-1.95419e-29
4.11765e-27
1.3543e-25
2.418e-24
1.35287e-23
4.18385e-23
7.08146e-23
2.16656e-24
1.00321e-24
1.69101e-26
1.73963e-28
1.5681e-30
1.19164e-32
1.13115e-34
1.22737e-36
1.49046e-38
2.01604e-40
3.02485e-42
5.03213e-44
9.10988e-46
1.93253e-47
4.96821e-49
1.16561e-50
2.50659e-52
4.71779e-54
6.69522e-56
5.72061e-58
1.54653e-60
-2.61246e-58
-9.10538e-59
2.57076e-55
-3.12777e-54
4.06558e-52