/*--------------------------------*- C++ -*----------------------------------*\
  =========                 |
  \\      /  F ield         | OpenFOAM: The Open Source CFD Toolbox
   \\    /   O peration     | Website:  https://openfoam.org
    \\  /    A nd           | Version:  7
     \\/     M anipulation  |
\*---------------------------------------------------------------------------*/
FoamFile
{
    version     2.0;
    format      ascii;
    class       volScalarField;
    location    "0.05";
    object      epsilon;
}
// * * * * * * * * * * * * * * * * * * * * * * * * * * * * * * * * * * * * * //

dimensions      [0 2 -3 0 0 0 0];

internalField   nonuniform List<scalar> 
9072
(
0.54163
0.719523
0.874024
0.971401
1.02537
1.05571
1.07503
1.09003
1.10393
1.11827
1.1338
1.15095
1.17011
1.19172
1.21641
1.24508
1.27914
1.32085
1.37402
1.44446
1.54068
1.6664
1.75199
1.74112
1.60862
1.41162
1.25093
1.14632
1.04609
1.00372
1.12167
1.50484
1.88326
0.529278
0.555985
0.562003
0.562207
0.560818
0.558821
0.556198
0.552431
0.54618
0.53431
0.509975
0.462581
0.400062
0.582709
0.548284
0.559143
0.563691
0.565063
0.565824
0.566921
0.568561
0.570713
0.573316
0.576341
0.579801
0.583751
0.588291
0.593575
0.59984
0.60747
0.617085
0.629734
0.647127
0.670925
0.700974
0.724392
0.731056
0.715433
0.688769
0.671309
0.669626
0.684218
0.705692
0.743499
0.771462
0.76287
0.572607
0.512041
0.492702
0.485074
0.480944
0.478293
0.47675
0.476483
0.477834
0.48081
0.484001
0.487481
0.647535
0.67749
0.537141
0.493789
0.467758
0.452301
0.443789
0.439603
0.43799
0.437869
0.438623
0.439929
0.441643
0.443728
0.446217
0.449199
0.452834
0.457384
0.463279
0.471195
0.482115
0.496395
0.512606
0.524606
0.531996
0.537974
0.546136
0.566091
0.58168
0.595425
0.619541
0.630375
0.611453
0.574966
0.512041
0.475653
0.457524
0.447693
0.441557
0.437649
0.43587
0.436969
0.442461
0.45463
0.476449
0.516322
0.728721
0.739626
0.527784
0.450645
0.407316
0.382515
0.36871
0.361413
0.357905
0.356572
0.356486
0.357144
0.358291
0.359827
0.361743
0.364098
0.367021
0.370731
0.375578
0.382062
0.390755
0.401461
0.412332
0.419857
0.42738
0.441976
0.463857
0.493187
0.504522
0.506359
0.514545
0.515529
0.500961
0.476319
0.445387
0.422525
0.407898
0.398381
0.391951
0.387938
0.386647
0.389302
0.398226
0.417265
0.452789
0.521566
0.810159
0.786008
0.517181
0.416856
0.36249
0.331806
0.314552
0.305102
0.300203
0.29795
0.297232
0.297426
0.298199
0.299396
0.300971
0.302957
0.305455
0.308642
0.31279
0.318244
0.325281
0.333438
0.340951
0.34589
0.352881
0.370384
0.396966
0.415878
0.421493
0.421748
0.42407
0.42318
0.41532
0.400815
0.382707
0.367165
0.355624
0.347306
0.3415
0.338109
0.337764
0.342027
0.353753
0.377872
0.42345
0.515212
0.878371
0.820837
0.507104
0.390323
0.328519
0.293912
0.274284
0.263262
0.257278
0.254261
0.252996
0.252779
0.253217
0.254112
0.255386
0.257042
0.259151
0.261844
0.265313
0.269769
0.275278
0.281286
0.28633
0.289468
0.295511
0.311939
0.33354
0.345438
0.350174
0.352673
0.353482
0.352722
0.348641
0.33987
0.328201
0.317103
0.30807
0.301187
0.296391
0.293945
0.294713
0.30048
0.314449
0.342329
0.39535
0.505265
0.93326
0.84667
0.498276
0.369648
0.30265
0.265312
0.243984
0.231776
0.224924
0.221264
0.219514
0.21892
0.219046
0.219657
0.220645
0.221986
0.223718
0.225927
0.228732
0.232236
0.236373
0.240603
0.243816
0.245661
0.250568
0.263852
0.273715
0.287297
0.295184
0.299781
0.300101
0.299333
0.296748
0.290925
0.282844
0.274652
0.267615
0.262124
0.258426
0.257003
0.258876
0.265974
0.281735
0.312453
0.371109
0.495339
0.97681
0.865792
0.490797
0.353587
0.28287
0.243563
0.22097
0.207842
0.200285
0.196077
0.193901
0.192967
0.192806
0.193154
0.193877
0.194924
0.196303
0.19806
0.200254
0.202906
0.205886
0.20872
0.210628
0.211603
0.215363
0.225334
0.229686
0.243066
0.253813
0.259299
0.259394
0.258426
0.256257
0.251916
0.24596
0.239753
0.234284
0.230026
0.227368
0.22692
0.229803
0.238041
0.255246
0.288177
0.35124
0.486852
1.01158
0.880074
0.484544
0.341109
0.267688
0.226916
0.203349
0.189486
0.181345
0.17667
0.17412
0.172881
0.172461
0.172572
0.173055
0.173838
0.174901
0.176256
0.177916
0.179853
0.181909
0.183703
0.184733
0.185181
0.187989
0.19513
0.198229
0.210197
0.222539
0.227922
0.22791
0.226664
0.224495
0.220917
0.216284
0.211475
0.207231
0.204016
0.202279
0.202699
0.206463
0.215662
0.234045
0.268769
0.335421
0.480272
1.04028
0.890915
0.479347
0.331413
0.256007
0.214115
0.189773
0.175304
0.166669
0.161591
0.158713
0.157205
0.156555
0.156456
0.156729
0.15728
0.15807
0.159081
0.160297
0.161659
0.163012
0.164072
0.164545
0.164707
0.166761
0.171662
0.17429
0.185892
0.198763
0.203435
0.203244
0.201703
0.199412
0.196256
0.192491
0.188693
0.185406
0.183053
0.182101
0.183267
0.187776
0.197772
0.217129
0.25336
0.323076
0.475739
1.06567
0.899305
0.475045
0.323894
0.247027
0.204256
0.179274
0.16429
0.15523
0.1498
0.146634
0.144888
0.144036
0.143752
0.143843
0.144198
0.144758
0.145486
0.146345
0.147265
0.148108
0.148674
0.148818
0.148839
0.150302
0.153501
0.155786
0.168063
0.180666
0.184245
0.183717
0.181881
0.179461
0.176569
0.17341
0.170363
0.167829
0.166179
0.165881
0.167669
0.172791
0.183437
0.203596
0.241133
0.31362
0.473396
1.09071
0.905911
0.471517
0.318114
0.240163
0.196679
0.17115
0.155718
0.146283
0.140541
0.137119
0.135163
0.134134
0.133693
0.13363
0.133821
0.134192
0.134694
0.135278
0.135872
0.136361
0.136612
0.136577
0.136529
0.137515
0.139483
0.141403
0.155037
0.166876
0.169136
0.168122
0.166002
0.163486
0.16079
0.158081
0.15561
0.15367
0.15259
0.152826
0.155118
0.160729
0.171881
0.192684
0.231368
0.306533
0.473615
1.119
0.911159
0.468701
0.313757
0.234985
0.190899
0.164885
0.149049
0.139277
0.133257
0.129608
0.127467
0.126284
0.125707
0.125516
0.125574
0.125797
0.126125
0.126505
0.126868
0.127124
0.127189
0.127065
0.126972
0.127534
0.128518
0.130141
0.145464
0.156311
0.157165
0.155566
0.15319
0.150624
0.148101
0.145747
0.143728
0.142261
0.141637
0.142299
0.144985
0.150961
0.162476
0.18375
0.223412
0.301332
0.477175
1.15563
0.915287
0.466612
0.310606
0.231172
0.186549
0.160088
0.143881
0.133802
0.12753
0.123677
0.121373
0.120057
0.119368
0.119073
0.119027
0.119136
0.119336
0.119571
0.119779
0.119892
0.119857
0.119695
0.119562
0.119793
0.12014
0.121453
0.138479
0.148197
0.147621
0.145392
0.142802
0.140238
0.137884
0.135825
0.134166
0.133073
0.132808
0.133797
0.13677
0.142986
0.154701
0.176226
0.216606
0.297394
0.485048
1.20887
0.918434
0.465327
0.3085
0.228466
0.183337
0.156455
0.1399
0.129537
0.123036
0.119001
0.116553
0.115124
0.114341
0.113965
0.113841
0.113868
0.11398
0.114119
0.114231
0.114263
0.11418
0.114002
0.113829
0.11388
0.114022
0.115074
0.133566
0.142038
0.139992
0.13712
0.134368
0.131855
0.129671
0.12786
0.126488
0.125685
0.12569
0.126914
0.130068
0.136389
0.148113
0.16958
0.21018
0.293513
0.496729
1.29647
0.920786
0.46486
0.307252
0.226627
0.181007
0.153724
0.136845
0.126221
0.119513
0.115314
0.11274
0.111214
0.110355
0.109916
0.109736
0.109708
0.109763
0.109844
0.109903
0.109893
0.109787
0.109593
0.109375
0.109341
0.109456
0.110292
0.130183
0.137362
0.133855
0.130369
0.127516
0.125094
0.123078
0.121475
0.120324
0.119736
0.119929
0.121297
0.124524
0.130805
0.142304
0.163279
0.203164
0.287031
0.505435
1.49842
0.379713
0.468949
0.524048
0.550489
0.561249
0.56474
0.565263
0.564763
0.563992
0.563284
0.562903
0.562615
0.562375
0.562167
0.561991
0.561842
0.561708
0.561596
0.561494
0.561401
0.561321
0.561234
0.561163
0.561082
0.56101
0.560936
0.560857
0.560776
0.560663
0.560491
0.560146
0.559382
0.557564
0.553129
0.542385
0.517558
0.466888
0.45882
0.594788
0.48537
0.472926
0.465027
0.460035
0.457387
0.456192
0.455762
0.455674
0.455716
0.45579
0.455858
0.455909
0.455936
0.455941
0.455932
0.455906
0.455873
0.455832
0.455783
0.455737
0.455681
0.455631
0.455575
0.455523
0.455473
0.455426
0.455394
0.455382
0.45543
0.4556
0.456048
0.457073
0.459207
0.463203
0.469586
0.480219
0.603556
0.677717
0.508339
0.454409
0.425383
0.410107
0.402718
0.399545
0.398447
0.398272
0.398441
0.398673
0.3989
0.399089
0.399228
0.39932
0.399375
0.399397
0.399397
0.39938
0.399348
0.399312
0.399264
0.399219
0.399169
0.399122
0.399081
0.399052
0.399058
0.399135
0.399383
0.400009
0.40146
0.404654
0.411376
0.424913
0.450913
0.500766
0.678498
0.737788
0.508046
0.426121
0.383499
0.36122
0.350122
0.345019
0.342968
0.342363
0.342367
0.342582
0.342845
0.34308
0.343265
0.343395
0.343481
0.343528
0.343547
0.343543
0.343522
0.343493
0.343453
0.343412
0.343368
0.343328
0.343299
0.343292
0.343345
0.343525
0.343992
0.345075
0.347446
0.352433
0.362561
0.382538
0.421189
0.497823
0.735726
0.781795
0.499053
0.396999
0.345157
0.317994
0.304069
0.297295
0.294281
0.293144
0.292869
0.292966
0.293182
0.293402
0.293587
0.293723
0.293817
0.293873
0.2939
0.293905
0.293892
0.29387
0.293838
0.293803
0.293768
0.293738
0.293723
0.293746
0.293854
0.294148
0.294841
0.296361
0.299543
0.305973
0.318606
0.342992
0.390109
0.485987
0.77983
0.814695
0.489009
0.371891
0.313392
0.282665
0.266569
0.258412
0.254528
0.252862
0.25228
0.252213
0.25234
0.252513
0.252672
0.252797
0.252886
0.252942
0.252972
0.252981
0.252975
0.252958
0.252934
0.252907
0.25288
0.252862
0.252866
0.252922
0.253091
0.253503
0.254419
0.256341
0.260221
0.267806
0.282308
0.309822
0.362909
0.473128
0.813492
0.839159
0.48052
0.351861
0.288253
0.254779
0.23697
0.227676
0.223037
0.220887
0.220008
0.219763
0.219785
0.219896
0.220019
0.220123
0.220201
0.220252
0.220281
0.220292
0.22029
0.220278
0.22026
0.22024
0.220223
0.220218
0.220242
0.220332
0.220565
0.221096
0.222223
0.224511
0.228988
0.237505
0.253439
0.283272
0.340784
0.461901
0.838486
0.857345
0.474259
0.336562
0.268788
0.233064
0.213853
0.203614
0.198331
0.195751
0.194597
0.194178
0.194092
0.194137
0.19422
0.1943
0.194363
0.194407
0.194433
0.194445
0.194445
0.194437
0.194424
0.194411
0.194402
0.194409
0.194453
0.194579
0.194876
0.195522
0.19685
0.199466
0.204456
0.213738
0.230805
0.262434
0.32336
0.452848
0.856598
0.871185
0.47035
0.325322
0.253913
0.216224
0.195819
0.184783
0.178949
0.175994
0.174594
0.174012
0.173822
0.173802
0.173844
0.173899
0.173947
0.173982
0.174004
0.174014
0.174015
0.17401
0.174001
0.173993
0.173992
0.174011
0.174075
0.174236
0.174597
0.175354
0.176867
0.179779
0.185213
0.195136
0.213127
0.246201
0.309847
0.445805
0.869501
0.882534
0.468937
0.317537
0.242685
0.20317
0.181708
0.169989
0.163686
0.160406
0.158787
0.158058
0.157772
0.157689
0.157691
0.157721
0.157753
0.157779
0.157796
0.157803
0.157804
0.157801
0.157795
0.157791
0.157797
0.157827
0.157911
0.158107
0.15853
0.159392
0.161077
0.164254
0.170076
0.180547
0.199314
0.233588
0.299447
0.44043
0.878582
0.893681
0.470544
0.312792
0.234345
0.19303
0.170606
0.158301
0.151601
0.148043
0.146234
0.145373
0.144998
0.144857
0.144822
0.144827
0.144844
0.14486
0.14487
0.144875
0.144875
0.144872
0.144868
0.144868
0.14488
0.144921
0.145024
0.145253
0.145735
0.146696
0.14854
0.151957
0.158122
0.169068
0.188501
0.223793
0.29148
0.436377
0.884914
0.908822
0.476446
0.310854
0.228264
0.185105
0.161806
0.149002
0.141974
0.138183
0.136212
0.135236
0.134781
0.134588
0.134517
0.134499
0.1345
0.134506
0.13451
0.134511
0.134509
0.134506
0.134503
0.134506
0.134523
0.134574
0.134695
0.134957
0.135495
0.136549
0.138539
0.142172
0.148642
0.160006
0.180019
0.216188
0.285398
0.433348
0.889292
0.938086
0.489051
0.311536
0.223854
0.17881
0.154743
0.141542
0.134256
0.130281
0.128174
0.127098
0.126574
0.126333
0.126229
0.126189
0.126176
0.126172
0.126169
0.126166
0.126162
0.126157
0.126155
0.12616
0.126182
0.126242
0.12638
0.126673
0.127264
0.128405
0.130528
0.134358
0.141101
0.152835
0.173359
0.210287
0.28077
0.431101
0.892298
1.00592
0.511832
0.314283
0.220424
0.173608
0.148956
0.135486
0.128022
0.123911
0.121698
0.120541
0.119957
0.119674
0.119541
0.119481
0.119453
0.119439
0.11943
0.119423
0.119416
0.11941
0.119407
0.119414
0.11944
0.119508
0.119662
0.119985
0.120625
0.121847
0.124094
0.128101
0.135089
0.147152
0.168128
0.205714
0.277257
0.429443
0.894366
1.15886
0.546422
0.317213
0.217013
0.168969
0.144051
0.13048
0.122933
0.118743
0.116456
0.115238
0.114606
0.114287
0.114129
0.114051
0.114011
0.113988
0.113972
0.11396
0.11395
0.113943
0.11394
0.113947
0.113977
0.114054
0.114223
0.114573
0.11526
0.116556
0.118915
0.123083
0.130291
0.142649
0.164022
0.202177
0.274599
0.428222
0.895854
1.45036
0.576216
0.315504
0.212331
0.164363
0.139682
0.126233
0.118716
0.11451
0.112185
0.110927
0.110261
0.109915
0.109737
0.109645
0.109594
0.109564
0.109543
0.109527
0.109515
0.109505
0.109502
0.109511
0.109545
0.109629
0.109813
0.110188
0.110919
0.112283
0.114745
0.119058
0.126463
0.139082
0.160805
0.199449
0.272591
0.427321
0.897061
0.922958
0.465067
0.306323
0.224799
0.178456
0.150594
0.133254
0.122264
0.115268
0.110848
0.108106
0.106455
0.105505
0.104996
0.104761
0.104686
0.104698
0.10474
0.104764
0.104731
0.104609
0.104383
0.104101
0.103986
0.104125
0.105007
0.126263
0.131652
0.126032
0.12164
0.1187
0.116471
0.114717
0.113388
0.112502
0.112151
0.112528
0.113994
0.117173
0.123153
0.133898
0.153267
0.189837
0.266163
0.452961
0.982481
0.925143
0.46643
0.30628
0.223703
0.176592
0.14815
0.130359
0.119014
0.11174
0.107106
0.104205
0.102439
0.101409
0.100848
0.10058
0.100486
0.100487
0.100523
0.100542
0.100497
0.100343
0.100052
0.0996937
0.0995015
0.0996406
0.100557
0.123037
0.126642
0.119434
0.114179
0.111125
0.109105
0.107615
0.106521
0.105823
0.105595
0.106003
0.10735
0.110152
0.115283
0.124264
0.139925
0.168032
0.221673
0.333216
0.56766
0.927648
0.467548
0.30641
0.223125
0.175512
0.146698
0.12862
0.117052
0.109603
0.104835
0.101834
0.0999988
0.0989243
0.0983384
0.0980591
0.0979647
0.0979708
0.0980128
0.0980331
0.097975
0.0977858
0.0974383
0.0970219
0.0967672
0.0968738
0.0979249
0.121077
0.123355
0.115266
0.109427
0.106243
0.10436
0.103074
0.102155
0.101571
0.101383
0.101728
0.102849
0.105146
0.109269
0.116282
0.127991
0.147596
0.180904
0.237472
0.321194
0.930633
0.468142
0.306334
0.22265
0.174763
0.145748
0.127516
0.115825
0.10828
0.103438
0.100383
0.0985092
0.0974101
0.0968106
0.0965255
0.0964299
0.096436
0.0964749
0.0964847
0.0964043
0.09618
0.0957933
0.0953495
0.0950649
0.0951499
0.096414
0.119579
0.120739
0.112413
0.106333
0.103061
0.101265
0.100132
0.0993511
0.0988534
0.0986768
0.0989301
0.0998004
0.101585
0.104739
0.109958
0.11829
0.131301
0.151112
0.179499
0.212999
0.933922
0.468356
0.306046
0.222159
0.174152
0.145052
0.126754
0.11501
0.107423
0.102547
0.0994662
0.0975735
0.0964607
0.0958511
0.095558
0.0954542
0.0954498
0.0954739
0.0954627
0.0953557
0.0951041
0.0947015
0.094262
0.0939805
0.0940666
0.0956699
0.118651
0.118644
0.110349
0.104259
0.100957
0.099212
0.0981851
0.0975106
0.0970806
0.0969073
0.0970694
0.0977054
0.0990271
0.101341
0.105078
0.11081
0.119237
0.130994
0.14595
0.161472
0.937358
0.46833
0.305612
0.221636
0.1736
0.144485
0.126177
0.114423
0.106827
0.101943
0.0988532
0.0969524
0.0958311
0.095212
0.0949073
0.0947891
0.0947665
0.0947684
0.0947323
0.0946016
0.0943356
0.0939384
0.0935262
0.0932691
0.0933736
0.0955238
0.11832
0.117096
0.108872
0.102858
0.0995484
0.0978257
0.0968638
0.0962643
0.0958856
0.0957123
0.0957946
0.0962297
0.0971628
0.098794
0.10138
0.105223
0.110611
0.117659
0.125941
0.133917
0.940834
0.468155
0.305092
0.221091
0.173078
0.143989
0.125701
0.113962
0.106376
0.101497
0.0984094
0.0965066
0.0953797
0.094751
0.0944327
0.0942969
0.0942529
0.0942311
0.0941721
0.0940251
0.0937574
0.0933814
0.0930085
0.0927854
0.092919
0.0959531
0.118452
0.116058
0.107871
0.101926
0.0986014
0.0968726
0.0959413
0.0953891
0.0950461
0.0948714
0.0948889
0.0951624
0.095788
0.0968927
0.0986277
0.101148
0.104565
0.10884
0.113614
0.118002
0.944281
0.467889
0.304525
0.220539
0.172578
0.143536
0.125285
0.113574
0.106007
0.101141
0.098061
0.0961598
0.0950289
0.0943912
0.0940592
0.0939056
0.0938409
0.093798
0.0937214
0.0935663
0.0933072
0.0929609
0.0926309
0.0924433
0.0926133
0.0970203
0.118912
0.115456
0.107253
0.101331
0.097966
0.0962067
0.0952794
0.0947524
0.0944324
0.0942557
0.0942243
0.0943755
0.0947704
0.0954884
0.0966186
0.0982422
0.100398
0.103024
0.105869
0.108399
0.947655
0.46757
0.303941
0.219992
0.172098
0.143114
0.124907
0.11323
0.105688
0.10084
0.0977694
0.0958717
0.0947385
0.0940931
0.0937487
0.0935792
0.0934969
0.0934372
0.0933491
0.0931931
0.092949
0.0926355
0.0923467
0.0921917
0.0924013
0.0989308
0.119605
0.115206
0.106929
0.100973
0.0975423
0.0957346
0.0947933
0.0942756
0.093969
0.0937911
0.0937254
0.0937896
0.0940207
0.0944678
0.0951849
0.0962172
0.0975795
0.0992207
0.100974
0.102491
0.950929
0.467221
0.303354
0.219458
0.17164
0.142718
0.124559
0.112918
0.105403
0.100574
0.0975149
0.0956222
0.0944881
0.0938367
0.0934822
0.0932997
0.0932035
0.0931319
0.0930375
0.0928857
0.0926599
0.0923789
0.0921271
0.0919999
0.092245
0.101767
0.120427
0.115202
0.106808
0.100775
0.0972609
0.095395
0.0944292
0.0939108
0.0936115
0.0934335
0.0933462
0.0933526
0.0934735
0.0937398
0.0941858
0.0948404
0.0957125
0.0967686
0.0978967
0.0988481
0.954086
0.466856
0.302777
0.218942
0.171203
0.142345
0.124235
0.112632
0.105144
0.100334
0.0972877
0.0954011
0.0942675
0.0936119
0.0932497
0.0930573
0.092951
0.0928715
0.0927751
0.0926306
0.0924242
0.0921735
0.0919538
0.0918492
0.0921173
0.105354
0.121295
0.115341
0.106803
0.100674
0.0970722
0.0951466
0.0941521
0.0936274
0.0933317
0.093155
0.0930558
0.0930269
0.0930783
0.0932299
0.0935055
0.0939269
0.0945039
0.0952174
0.0959891
0.0966227
0.957115
0.466486
0.302216
0.218447
0.170788
0.141995
0.123934
0.112367
0.104907
0.100116
0.0970826
0.0952029
0.0940711
0.0934132
0.0930455
0.092846
0.0927327
0.0926487
0.0925531
0.0924176
0.0922303
0.0920071
0.0918149
0.0917279
0.0919992
0.109414
0.122112
0.115518
0.106844
0.100623
0.0969416
0.0949611
0.0939382
0.0934047
0.0931105
0.0929363
0.0928324
0.0927842
0.092795
0.0928779
0.0930514
0.0933346
0.0937396
0.0942574
0.0948292
0.0952859
0.960009
0.466117
0.301674
0.217975
0.170396
0.141666
0.123653
0.112122
0.104689
0.0999175
0.0968969
0.0950246
0.0938956
0.0932369
0.0928658
0.0926615
0.0925437
0.0924576
0.0923646
0.0922388
0.0920695
0.091871
0.0917027
0.0916308
0.0919047
0.11293
0.122804
0.115671
0.106887
0.100592
0.0968464
0.0948193
0.0937706
0.0932281
0.0929343
0.0927633
0.0926594
0.0926026
0.0925919
0.0926367
0.0927525
0.0929576
0.0932665
0.0936766
0.0941395
0.0944996
0.962766
0.465753
0.301154
0.217527
0.170027
0.141359
0.123392
0.111896
0.104488
0.099736
0.0967283
0.094864
0.0937387
0.0930803
0.0927074
0.0925001
0.0923798
0.0922932
0.092204
0.092088
0.0919353
0.0917589
0.0916114
0.0915524
0.0918222
0.116003
0.123368
0.11578
0.106912
0.100567
0.0967723
0.0947081
0.0936376
0.0930866
0.092793
0.0926256
0.0925243
0.0924656
0.0924455
0.0924712
0.0925569
0.0927206
0.0929787
0.0933323
0.0937386
0.0940475
0.965386
0.465396
0.300657
0.217103
0.16968
0.141072
0.123149
0.111687
0.104304
0.0995704
0.0965756
0.0947194
0.0935984
0.0929414
0.0925678
0.092359
0.0922374
0.0921516
0.0920667
0.0919601
0.0918227
0.0916661
0.0915369
0.0914902
0.0917629
0.118356
0.123826
0.115857
0.106922
0.100541
0.0967116
0.0946187
0.0935306
0.0929725
0.092679
0.0925153
0.0924179
0.0923609
0.0923384
0.0923563
0.092428
0.0925719
0.0928053
0.0931317
0.0935103
0.0937931
0.967872
0.465048
0.300182
0.216701
0.169354
0.140803
0.122924
0.111493
0.104135
0.0994193
0.0964371
0.0945892
0.0934731
0.0928182
0.0924448
0.0922355
0.0921137
0.0920293
0.0919489
0.0918513
0.0917278
0.0915888
0.0914761
0.0914423
0.0917395
0.11988
0.124208
0.115923
0.106927
0.100517
0.0966605
0.0945454
0.0934435
0.0928797
0.0925866
0.0924264
0.0923334
0.0922799
0.0922587
0.0922749
0.0923416
0.0924776
0.0927008
0.0930156
0.0933823
0.0936524
0.970226
0.464708
0.299729
0.216321
0.169048
0.140553
0.122715
0.111315
0.10398
0.0992815
0.0963117
0.0944722
0.0933611
0.0927088
0.0923365
0.0921273
0.092006
0.0919235
0.0918477
0.0917584
0.0916475
0.0915242
0.0914262
0.0914045
0.0917269
0.121193
0.124589
0.116006
0.106937
0.100497
0.0966169
0.0944844
0.093372
0.0928042
0.0925117
0.0923548
0.0922661
0.0922166
0.0921983
0.0922158
0.0922823
0.0924164
0.0926369
0.0929483
0.0933109
0.093575
0.972451
0.464375
0.299295
0.215961
0.16876
0.140319
0.122521
0.111151
0.103838
0.099156
0.0961983
0.094367
0.0932612
0.0926119
0.0922409
0.0920326
0.0919122
0.0918319
0.0917604
0.0916788
0.0915792
0.09147
0.0913852
0.0913744
0.0917216
0.122433
0.125004
0.116124
0.106961
0.100482
0.0965798
0.0944332
0.0933131
0.0927428
0.0924514
0.0922976
0.0922128
0.0921672
0.0921521
0.0921721
0.0922403
0.0923755
0.0925966
0.0929084
0.0932705
0.0935319
0.974552
0.46405
0.298882
0.215621
0.16849
0.140101
0.122341
0.110999
0.103708
0.0990416
0.0960956
0.0942725
0.093172
0.0925259
0.0921568
0.0919495
0.0918304
0.0917523
0.0916851
0.0916106
0.0915212
0.0914246
0.0913515
0.0913507
0.0917243
0.123585
0.125436
0.116266
0.106995
0.100471
0.096548
0.0943903
0.0932651
0.0926937
0.0924037
0.0922528
0.0921714
0.092129
0.092117
0.0921396
0.09221
0.0923473
0.0925703
0.0928839
0.0932467
0.0935064
0.976529
0.463731
0.298486
0.215299
0.168235
0.139897
0.122174
0.110859
0.103588
0.0989375
0.0960027
0.0941876
0.0930925
0.0924497
0.0920826
0.0918767
0.091759
0.0916833
0.0916201
0.091552
0.0914719
0.0913866
0.091324
0.0913326
0.0917384
0.124593
0.12586
0.116419
0.107035
0.100464
0.0965209
0.0943548
0.0932269
0.0926557
0.0923676
0.0922192
0.0921404
0.0921007
0.092091
0.0921157
0.0921881
0.0923274
0.0925525
0.0928679
0.0932315
0.0934896
0.978387
0.46342
0.298108
0.214993
0.167996
0.139707
0.122018
0.11073
0.103478
0.0988425
0.0959186
0.0941113
0.0930215
0.0923821
0.0920172
0.0918129
0.0916968
0.0916233
0.0915639
0.0915017
0.0914299
0.0913547
0.0913016
0.0913193
0.0917625
0.125495
0.126273
0.116576
0.107078
0.10046
0.0964981
0.0943264
0.093198
0.0926284
0.0923423
0.0921961
0.0921193
0.0920812
0.092073
0.092099
0.0921728
0.0923135
0.0925401
0.0928568
0.0932206
0.0934765
0.980125
0.463116
0.297746
0.214704
0.167771
0.139528
0.121874
0.11061
0.103378
0.0987559
0.0958426
0.0940428
0.0929582
0.0923223
0.0919597
0.091757
0.0916425
0.0915713
0.0915154
0.0914585
0.0913942
0.0913281
0.0912836
0.09131
0.091796
0.126326
0.126681
0.116737
0.107123
0.100457
0.0964799
0.0943054
0.0931788
0.0926118
0.0923281
0.0921835
0.0921079
0.0920704
0.0920626
0.092089
0.0921631
0.0923044
0.0925316
0.0928485
0.0932115
0.0934645
0.981746
0.462819
0.2974
0.214429
0.167559
0.139361
0.121739
0.1105
0.103285
0.0986769
0.0957736
0.0939812
0.0929017
0.0922693
0.091909
0.091708
0.0915953
0.0915262
0.0914736
0.0914215
0.0913639
0.091306
0.0912694
0.0913041
0.0918394
0.127115
0.127094
0.116906
0.107171
0.100458
0.096467
0.0942928
0.09317
0.0926067
0.0923253
0.0921818
0.0921062
0.0920683
0.0920597
0.0920853
0.0921587
0.0922995
0.0925262
0.0928421
0.093203
0.0934522
0.983252
0.462529
0.29707
0.214169
0.167359
0.139205
0.121614
0.110397
0.1032
0.0986048
0.0957112
0.0939258
0.0928513
0.0922223
0.0918644
0.0916652
0.0915541
0.0914872
0.0914376
0.09139
0.0913384
0.0912879
0.0912585
0.0913013
0.0918937
0.127886
0.127519
0.117083
0.107224
0.100462
0.0964609
0.09429
0.0931732
0.0926143
0.0923351
0.0921917
0.0921149
0.0920751
0.0920644
0.0920878
0.0921594
0.0922984
0.0925233
0.092837
0.0931944
0.0934385
0.984647
0.462245
0.296754
0.213923
0.167171
0.139059
0.121498
0.110303
0.103122
0.0985389
0.0956546
0.093876
0.0928064
0.0921808
0.0918252
0.0916279
0.0915185
0.0914536
0.0914068
0.0913633
0.0913172
0.0912733
0.0912505
0.0913013
0.0919605
0.128658
0.127965
0.117274
0.107282
0.100472
0.0964635
0.0942994
0.0931906
0.0926366
0.0923588
0.0922143
0.0921347
0.0920913
0.0920768
0.0920967
0.092165
0.0923009
0.0925227
0.0928326
0.093185
0.093423
0.985933
0.46197
0.296455
0.213691
0.166996
0.138923
0.12139
0.110215
0.10305
0.0984786
0.0956033
0.0938313
0.0927664
0.0921442
0.0917909
0.0915954
0.0914876
0.0914247
0.0913807
0.0913408
0.0912998
0.0912619
0.0912452
0.091304
0.0920423
0.129452
0.128444
0.117481
0.107348
0.10049
0.0964777
0.0943241
0.0932253
0.0926764
0.0923989
0.0922512
0.0921667
0.0921177
0.0920976
0.0921121
0.0921755
0.0923069
0.092524
0.0928285
0.0931743
0.0934048
0.987112
0.461705
0.296175
0.213476
0.166833
0.138797
0.12129
0.110134
0.102983
0.0984235
0.0955567
0.0937912
0.0927309
0.0921119
0.091761
0.0915672
0.0914611
0.0914002
0.0913587
0.0913224
0.0912859
0.0912536
0.0912427
0.0913095
0.0921428
0.130296
0.128968
0.11771
0.107424
0.100518
0.0965078
0.094369
0.093282
0.0927376
0.0924583
0.0923048
0.0922125
0.0921552
0.0921271
0.0921343
0.0921911
0.0923163
0.092527
0.0928243
0.0931618
0.0933835
0.988181
0.461456
0.295918
0.213279
0.166684
0.138681
0.121197
0.110059
0.102922
0.098373
0.0955145
0.0937552
0.0926995
0.0920837
0.091735
0.0915429
0.0914385
0.0913795
0.0913406
0.0913077
0.0912755
0.0912484
0.0912429
0.0913179
0.0922676
0.131221
0.129552
0.117964
0.107512
0.10056
0.0965592
0.0944405
0.0933668
0.0928252
0.0925407
0.0923775
0.0922737
0.0922049
0.092166
0.0921636
0.0922117
0.0923287
0.0925312
0.0928196
0.0931468
0.0933585
0.989131
0.461236
0.295693
0.213106
0.16655
0.138575
0.121111
0.109989
0.102865
0.0983264
0.0954762
0.0937231
0.0926718
0.0920591
0.0917126
0.0915222
0.0914194
0.0913623
0.091326
0.0912965
0.0912686
0.0912465
0.0912462
0.0913299
0.0924249
0.13226
0.130211
0.118246
0.107612
0.100621
0.0966394
0.0945475
0.0934877
0.0929458
0.092651
0.0924727
0.0923524
0.0922677
0.0922147
0.0921999
0.0922371
0.0923441
0.0925364
0.0928137
0.0931287
0.093329
0.989956
0.461069
0.295513
0.212958
0.166429
0.138475
0.121029
0.109922
0.102811
0.0982829
0.0954412
0.0936944
0.0926477
0.092038
0.0916937
0.0915049
0.0914037
0.0913486
0.0913148
0.0912888
0.0912654
0.0912483
0.0912533
0.0913462
0.0926273
0.13345
0.13095
0.118544
0.107717
0.100702
0.0967585
0.094702
0.0936558
0.0931077
0.0927949
0.0925938
0.0924505
0.0923449
0.0922737
0.0922434
0.0922672
0.0923618
0.0925418
0.0928059
0.0931068
0.0932944
0.990661
0.460989
0.295385
0.21283
0.166312
0.138374
0.120945
0.109854
0.102757
0.0982414
0.095409
0.0936691
0.092627
0.0920205
0.0916783
0.0914911
0.0913914
0.0913382
0.0913072
0.091285
0.0912664
0.0912548
0.0912654
0.0913682
0.0928934
0.134816
0.13174
0.118818
0.107806
0.100805
0.0969305
0.0949213
0.0938856
0.0933212
0.0929788
0.0927446
0.09257
0.0924371
0.0923431
0.0922939
0.0923014
0.0923814
0.0925469
0.0927956
0.0930803
0.0932539
0.991278
0.461026
0.29529
0.212694
0.166178
0.138256
0.120849
0.10978
0.102701
0.0982004
0.0953791
0.093647
0.0926102
0.092007
0.0916668
0.0914811
0.0913829
0.0913317
0.0913037
0.0912858
0.0912727
0.0912675
0.0912846
0.0913983
0.0932529
0.136325
0.132474
0.118969
0.107832
0.100935
0.0971757
0.0952254
0.0941922
0.0935962
0.0932084
0.0929277
0.0927117
0.0925442
0.0924222
0.0923503
0.092339
0.092402
0.0925507
0.0927818
0.0930484
0.0932068
0.99204
0.461169
0.295152
0.212483
0.165977
0.13809
0.120723
0.109689
0.102638
0.0981581
0.0953512
0.0936286
0.0925979
0.0919985
0.0916606
0.0914764
0.0913797
0.0913305
0.0913058
0.0912928
0.0912864
0.0912892
0.0913144
0.0914402
0.0937633
0.137761
0.132862
0.118811
0.10774
0.101087
0.0975139
0.0956364
0.0945919
0.093942
0.0934878
0.0931442
0.0928749
0.0926648
0.0925095
0.0924113
0.0923785
0.0924223
0.0925523
0.0927637
0.0930099
0.0931523
0.994146
0.461385
0.294874
0.212104
0.165641
0.137835
0.120544
0.10957
0.102563
0.0981127
0.0953253
0.0936151
0.092592
0.0919972
0.0916621
0.0914798
0.0913848
0.091338
0.091317
0.0913097
0.0913116
0.0913248
0.091361
0.0914992
0.0945152
0.13848
0.132293
0.11805
0.107438
0.101272
0.0979769
0.0961802
0.095099
0.0943641
0.0938175
0.0933921
0.0930569
0.0927961
0.0926023
0.0924747
0.092418
0.0924408
0.0925503
0.0927401
0.0929644
0.0930898
1.00094
0.462345
0.294481
0.211459
0.165088
0.137439
0.120284
0.109411
0.102471
0.0980633
0.0953026
0.0936088
0.0925958
0.0920071
0.091676
0.0914966
0.091404
0.0913602
0.0913436
0.0913433
0.0913554
0.0913825
0.091435
0.0915871
0.0953933
0.137279
0.129914
0.116372
0.1069
0.101541
0.0986123
0.0968808
0.0957195
0.0948591
0.0941904
0.0936639
0.0932511
0.0929328
0.0926967
0.0925373
0.0924553
0.0924558
0.0925434
0.0927102
0.0929114
0.0930193
1.01823
0.466357
0.294213
0.210455
0.164231
0.136856
0.119926
0.109206
0.102362
0.0980126
0.0952876
0.0936158
0.0926165
0.0920368
0.0917117
0.0915366
0.0914478
0.091408
0.0913967
0.0914043
0.0914288
0.0914748
0.0915538
0.0917395
0.0960205
0.133464
0.125399
0.113877
0.106316
0.102025
0.0994737
0.097745
0.0964394
0.0954076
0.0945886
0.0939454
0.093447
0.0930673
0.0927873
0.0925954
0.0924876
0.0924653
0.0925303
0.0926733
0.0928504
0.0929408
1.05639
0.477212
0.293711
0.20863
0.162851
0.136012
0.11945
0.108952
0.102237
0.0979664
0.0952889
0.0936468
0.0926668
0.0921
0.0917837
0.0916151
0.0915315
0.0914966
0.091491
0.0915071
0.0915461
0.0916203
0.0917543
0.0921052
0.0973847
0.129019
0.120093
0.111476
0.106157
0.102891
0.100579
0.0987347
0.0972106
0.0959682
0.0949812
0.0942149
0.0936297
0.0931898
0.0928674
0.0926444
0.0925119
0.0924674
0.0925099
0.0926286
0.0927814
0.0928547
1.17247
0.506496
0.293673
0.206426
0.161241
0.135054
0.118924
0.108683
0.102119
0.0979376
0.0953182
0.0937147
0.0927612
0.092213
0.0919102
0.091752
0.0916773
0.091651
0.0916547
0.0916814
0.0917368
0.0918563
0.0921615
0.0941553
0.106646
0.123641
0.115838
0.110391
0.106878
0.104195
0.101842
0.0997422
0.0979444
0.0964777
0.095326
0.094445
0.0937819
0.0932891
0.09293
0.09268
0.0925255
0.0924604
0.0924811
0.092576
0.0927048
0.0927615
1.15034
0.513271
0.294723
0.206766
0.16138
0.13512
0.118961
0.10871
0.102148
0.0979741
0.0953663
0.0937781
0.0928435
0.0923187
0.0920452
0.0919242
0.0918974
0.0919329
0.0920157
0.0921402
0.0923124
0.0926082
0.0932629
0.105257
0.121169
0.118824
0.114376
0.111178
0.108415
0.10569
0.103025
0.100592
0.098524
0.0968623
0.0955777
0.0946083
0.0938868
0.093355
0.0929687
0.0926981
0.0925257
0.0924427
0.0924434
0.0925155
0.0926211
0.0926624
1.19923
0.499031
0.298156
0.210304
0.163831
0.13669
0.120058
0.109732
0.103401
0.0996735
0.0976639
0.0967995
0.096715
0.0971917
0.0981171
0.0994574
0.101235
0.103501
0.106272
0.10939
0.11245
0.115228
0.118973
0.121472
0.120298
0.118104
0.11559
0.11293
0.109977
0.106848
0.103807
0.101095
0.0988403
0.0970595
0.0957002
0.0946838
0.0939321