/*--------------------------------*- C++ -*----------------------------------*\
  =========                 |
  \\      /  F ield         | OpenFOAM: The Open Source CFD Toolbox
   \\    /   O peration     | Website:  https://openfoam.org
    \\  /    A nd           | Version:  7
     \\/     M anipulation  |
\*---------------------------------------------------------------------------*/
FoamFile
{
    version     2.0;
    format      ascii;
    class       volScalarField;
    location    "0.05";
    object      k;
}
// * * * * * * * * * * * * * * * * * * * * * * * * * * * * * * * * * * * * * //

dimensions      [0 2 -2 0 0 0 0];

internalField   nonuniform List<scalar> 
9072
(
0.0179791
0.0182685
0.0211828
0.0229771
0.0239848
0.0245619
0.0249288
0.0252054
0.0254528
0.0257012
0.0259659
0.0262558
0.0265779
0.0269395
0.0273502
0.0278241
0.0283821
0.0290566
0.0299002
0.030986
0.032402
0.0341584
0.0354207
0.0353198
0.0335804
0.0308212
0.0283607
0.026614
0.025022
0.0238823
0.0241521
0.02778
0.0328415
0.0393494
0.0419069
0.0426928
0.0428225
0.0427331
0.0425615
0.0423268
0.0419905
0.0414423
0.0404251
0.0383863
0.0344607
0.0290313
0.025687
0.0387506
0.0457758
0.0495538
0.0515804
0.0526823
0.0533117
0.0537119
0.0540118
0.0542797
0.0545526
0.0548526
0.0551958
0.0555973
0.0560755
0.0566555
0.0573749
0.0582907
0.059488
0.0610708
0.0630866
0.0652811
0.0665245
0.0657821
0.062395
0.0572759
0.0527922
0.0499862
0.0446501
0.0402202
0.0412478
0.0458922
0.0502829
0.0533863
0.0548369
0.0552056
0.055116
0.0548585
0.054525
0.0541072
0.0535382
0.052658
0.0511031
0.0480653
0.0418511
0.0281902
0.0286226
0.0483297
0.0572512
0.0618784
0.0644022
0.0658352
0.0666953
0.0672597
0.0676806
0.0680432
0.0683976
0.0687754
0.0692002
0.0696934
0.0702793
0.0709899
0.0718703
0.072986
0.0744242
0.0762713
0.0784823
0.080639
0.0816473
0.0807655
0.0773749
0.0722213
0.0673464
0.0648704
0.0616644
0.0597689
0.0613636
0.0643274
0.0664351
0.0674021
0.0675753
0.0672943
0.0668236
0.0662808
0.0656884
0.0650062
0.0641456
0.0629207
0.0609207
0.0572022
0.0495144
0.0304743
0.0305058
0.0541837
0.0641663
0.0692215
0.0720038
0.0736296
0.0746406
0.0753223
0.0758336
0.0762672
0.0766802
0.0771105
0.0775866
0.0781342
0.0787812
0.0795626
0.0805258
0.0817347
0.0832643
0.0851644
0.0873142
0.0892092
0.08989
0.0889253
0.0858825
0.0814017
0.0783038
0.0757779
0.0725104
0.0715229
0.0732134
0.0754625
0.0768084
0.0771118
0.0767743
0.0761513
0.0754323
0.0746837
0.0738988
0.0730239
0.0719612
0.0705145
0.0682506
0.0641436
0.0555554
0.0328437
0.031887
0.0580517
0.068698
0.0739986
0.0769267
0.0786674
0.0797741
0.0805331
0.0811044
0.0815835
0.082031
0.0824885
0.0829877
0.0835567
0.084225
0.0850278
0.0860099
0.0872273
0.0887352
0.0905433
0.0924799
0.0940255
0.0943954
0.0934009
0.0908887
0.0875934
0.0855833
0.0826138
0.0803312
0.0797992
0.0809669
0.0826164
0.0835574
0.0835784
0.083034
0.0822574
0.0814095
0.0805435
0.0796455
0.0786582
0.0774819
0.0759165
0.0735163
0.0692002
0.0600519
0.0348303
0.0329169
0.0607214
0.0718133
0.077268
0.0802826
0.0820919
0.0832568
0.0840628
0.0846692
0.0851722
0.085634
0.086098
0.0865976
0.0871618
0.0878199
0.088605
0.0895563
0.0907175
0.0921215
0.0937432
0.0953858
0.0965663
0.0966799
0.0957266
0.0938401
0.0919968
0.0895511
0.0873726
0.0861013
0.0855907
0.0862302
0.08736
0.0879753
0.087837
0.0872129
0.086385
0.0854914
0.0845793
0.0836345
0.0826012
0.0813793
0.0797673
0.0773102
0.0728859
0.0633707
0.0364256
0.0336821
0.062623
0.0740313
0.0795911
0.08266
0.08451
0.0857084
0.0865401
0.0871635
0.0876744
0.0881354
0.0885907
0.0890742
0.0896146
0.0902398
0.0909792
0.0918645
0.0929258
0.0941747
0.0955606
0.0968841
0.0977297
0.0976615
0.0968321
0.0956188
0.095018
0.0925151
0.0911554
0.0904358
0.0897652
0.0899391
0.090582
0.0908933
0.0906351
0.0899839
0.0891586
0.0882724
0.0873649
0.0864224
0.0853913
0.0841723
0.0825617
0.0800963
0.0756194
0.0658437
0.0376933
0.0342528
0.0640129
0.0756553
0.0812922
0.0843975
0.0862719
0.0874882
0.0883316
0.0889595
0.0894673
0.0899174
0.0903539
0.0908103
0.0913146
0.0918922
0.0925679
0.0933654
0.0943021
0.0953716
0.0965084
0.0975272
0.098095
0.0979254
0.0972871
0.0966973
0.0967396
0.0948688
0.0942462
0.093707
0.0928333
0.0926114
0.0928148
0.0928434
0.0924796
0.0918215
0.0910255
0.0901776
0.0893074
0.0884004
0.0874048
0.0862219
0.0846458
0.0822045
0.0777086
0.0677321
0.0387106
0.0346836
0.0650521
0.0768727
0.0825699
0.0857018
0.0875911
0.0888158
0.089662
0.0902865
0.0907843
0.0912173
0.0916291
0.0920523
0.0925134
0.0930351
0.0936377
0.0943372
0.0951398
0.0960267
0.0969265
0.0976787
0.0980357
0.0978367
0.0974192
0.0973259
0.0977266
0.0966838
0.0967383
0.0961648
0.0951166
0.0945628
0.0943869
0.0941637
0.0937039
0.0930463
0.0922912
0.0914979
0.0906846
0.0898342
0.0888962
0.0877724
0.0862559
0.0838661
0.079379
0.0692411
0.0395558
0.0350145
0.0658458
0.0778041
0.0835509
0.0867041
0.0886031
0.0898309
0.0906746
0.0912914
0.0917755
0.0921883
0.0925726
0.09296
0.0933752
0.0938381
0.0943647
0.0949646
0.0956355
0.096351
0.0970412
0.0975759
0.0977859
0.0976085
0.0974026
0.0976458
0.0982807
0.0981639
0.0987659
0.0980378
0.096831
0.095998
0.0955064
0.0950689
0.0945248
0.0938709
0.0931611
0.0924299
0.0916837
0.0909022
0.0900361
0.088989
0.0875544
0.0852457
0.0808025
0.0705424
0.0403068
0.0352734
0.0664641
0.0785297
0.0843192
0.0874912
0.0893974
0.0906255
0.0914643
0.0920712
0.0925402
0.0929322
0.0932889
0.0936406
0.0940104
0.0944155
0.0948683
0.0953735
0.0959231
0.0964872
0.0970028
0.0973704
0.0974861
0.0973555
0.097321
0.0977428
0.0985062
0.0994836
0.100474
0.0995023
0.0981276
0.0970565
0.0963094
0.0956973
0.0950837
0.0944365
0.093773
0.093106
0.0924311
0.0917251
0.0909401
0.0899836
0.0886539
0.0864642
0.0821196
0.0718001
0.0410461
0.0354791
0.0669534
0.0791038
0.0849319
0.088122
0.0900347
0.0912622
0.0920952
0.092692
0.0931464
0.0935185
0.0938492
0.0941676
0.0944949
0.0948465
0.0952315
0.0956512
0.0960946
0.0965319
0.0969095
0.0971554
0.0972151
0.0971342
0.0972135
0.0976856
0.098483
0.100724
0.101964
0.100676
0.0991112
0.0978361
0.0968885
0.0961411
0.0954749
0.0948383
0.0942207
0.0936168
0.0930134
0.0923849
0.0916865
0.0908324
0.0896325
0.0876117
0.0834543
0.0731986
0.0418729
0.0356434
0.0673429
0.0795629
0.0854284
0.0886374
0.090557
0.091784
0.0926118
0.0931994
0.0936408
0.0939954
0.0943032
0.0945922
0.0948821
0.0951863
0.095512
0.0958584
0.0962133
0.0965494
0.0968231
0.0969851
0.0970131
0.0969683
0.0970981
0.0975229
0.0982847
0.101888
0.103281
0.101629
0.0998548
0.0984079
0.0973102
0.0964652
0.0957643
0.0951424
0.0945691
0.0940249
0.0934897
0.0929373
0.0923272
0.0915845
0.0905397
0.0887502
0.0849184
0.0749722
0.0429228
0.0357727
0.0676485
0.0799313
0.0858356
0.0890654
0.0909934
0.0922211
0.0930449
0.0936252
0.0940559
0.0943963
0.0946853
0.0949499
0.0952086
0.0954734
0.0957501
0.0960366
0.0963213
0.0965805
0.0967798
0.0968864
0.096895
0.0968643
0.0969885
0.0973119
0.0979735
0.102986
0.10446
0.102412
0.100414
0.0988283
0.0976273
0.0967193
0.0960002
0.0953964
0.094864
0.0943735
0.0939003
0.0934185
0.092894
0.0922667
0.0913982
0.089908
0.0866001
0.0774139
0.0444036
0.0358713
0.0678759
0.080224
0.0861714
0.0894249
0.0913632
0.0925933
0.0934149
0.09399
0.0944131
0.0947429
0.0950177
0.0952636
0.0954981
0.0957322
0.0959708
0.0962115
0.0964437
0.0966473
0.0967956
0.096866
0.0968585
0.0968188
0.0969005
0.0971193
0.0976988
0.104067
0.105554
0.103067
0.100837
0.0991468
0.0978845
0.096943
0.0962187
0.0956337
0.095136
0.0946901
0.0942686
0.0938473
0.0933994
0.0928822
0.0921976
0.091061
0.0885132
0.0807964
0.0467136
0.035945
0.0680272
0.0804477
0.0864435
0.0897239
0.0916747
0.0929092
0.0937306
0.094303
0.0947211
0.0950437
0.0953086
0.0955412
0.0957583
0.0959702
0.0961812
0.0963891
0.0965843
0.0967497
0.0968633
0.0969073
0.0968795
0.0968116
0.0968321
0.0969629
0.0974922
0.105122
0.106564
0.103612
0.101157
0.0993968
0.0981092
0.0971569
0.0964352
0.0958658
0.0953936
0.0949799
0.0945962
0.0942202
0.0938321
0.0934061
0.0928867
0.0921063
0.0904747
0.0851825
0.0515572
0.0275852
0.0348199
0.0394257
0.0417393
0.0427419
0.0431016
0.0431806
0.0431531
0.043093
0.0430331
0.0429982
0.0429724
0.042951
0.0429328
0.0429175
0.0429049
0.042894
0.0428849
0.042877
0.0428698
0.0428638
0.0428575
0.0428523
0.0428466
0.0428414
0.0428361
0.0428303
0.0428238
0.042814
0.0427973
0.0427623
0.0426844
0.0425038
0.0420802
0.0411006
0.0389379
0.0346652
0.026889
0.0283151
0.0425456
0.0495229
0.0529315
0.0545015
0.0551581
0.0553856
0.0554273
0.0553969
0.0553468
0.0553048
0.0552681
0.055237
0.0552114
0.0551904
0.0551739
0.0551602
0.0551495
0.0551408
0.0551334
0.0551277
0.0551222
0.0551178
0.0551133
0.0551092
0.055105
0.0550996
0.0550918
0.0550771
0.0550471
0.0549813
0.0548356
0.0545137
0.0538073
0.0522821
0.049059
0.0424407
0.0284874
0.0308265
0.0502386
0.0586435
0.0626694
0.064611
0.0655133
0.0658995
0.0660387
0.0660666
0.0660497
0.0660191
0.0659854
0.0659546
0.0659282
0.0659061
0.0658882
0.0658733
0.0658613
0.0658514
0.065843
0.0658362
0.06583
0.0658247
0.0658197
0.0658147
0.0658093
0.0658018
0.0657897
0.0657662
0.065718
0.0656167
0.0654035
0.0649598
0.0640468
0.0621857
0.0583817
0.0503569
0.0308254
0.0327286
0.0558563
0.0651777
0.0695754
0.071754
0.0728314
0.0733438
0.0735689
0.0736525
0.0736702
0.073658
0.0736348
0.0736102
0.0735876
0.0735679
0.0735512
0.073537
0.0735251
0.0735151
0.0735064
0.073499
0.0734923
0.0734863
0.0734805
0.0734745
0.0734675
0.0734571
0.0734396
0.073406
0.0733388
0.0732032
0.0729311
0.0723925
0.0713373
0.069272
0.0651371
0.056246
0.0326607
0.0341259
0.059766
0.0697246
0.0743707
0.0767064
0.0779043
0.0785091
0.0788007
0.0789296
0.0789769
0.0789828
0.0789714
0.0789544
0.0789368
0.0789205
0.0789061
0.0788935
0.0788826
0.0788732
0.0788648
0.0788575
0.0788507
0.0788444
0.0788382
0.0788314
0.0788227
0.0788095
0.0787863
0.0787424
0.0786569
0.0784901
0.0781687
0.0775573
0.0764031
0.0742071
0.069865
0.0603987
0.0340734
0.0351684
0.0625059
0.0729395
0.0777669
0.0802101
0.0814895
0.0821583
0.0824979
0.0826607
0.0827309
0.0827519
0.0827506
0.0827405
0.0827276
0.0827146
0.0827026
0.0826917
0.0826821
0.0826735
0.0826658
0.0826589
0.0826524
0.0826463
0.0826399
0.0826325
0.0826224
0.0826062
0.0825775
0.0825236
0.082421
0.0822268
0.0818646
0.0811973
0.0799723
0.0776878
0.0732042
0.0633304
0.0351495
0.0359457
0.0644639
0.075279
0.080249
0.082767
0.0840989
0.084809
0.0851805
0.0853666
0.0854529
0.0854852
0.0854916
0.0854866
0.0854774
0.085467
0.085457
0.0854477
0.0854392
0.0854316
0.0854247
0.0854184
0.0854124
0.0854064
0.0854
0.0853921
0.0853807
0.0853617
0.0853275
0.0852641
0.0851458
0.0849278
0.0845319
0.0838211
0.0825436
0.0801949
0.0756055
0.0654241
0.0359512
0.0365284
0.0659012
0.0770448
0.0821318
0.0846992
0.0860603
0.0867929
0.0871825
0.0873825
0.0874787
0.0875181
0.0875295
0.0875279
0.0875209
0.0875123
0.0875036
0.0874953
0.0874878
0.087481
0.0874748
0.087469
0.0874635
0.0874579
0.0874515
0.087443
0.0874303
0.0874084
0.087369
0.0872966
0.0871643
0.0869255
0.0865016
0.0857559
0.0844377
0.0820386
0.0773634
0.0669366
0.0365371
0.0369778
0.0670017
0.0784427
0.0836232
0.0862157
0.0875847
0.0883228
0.0887184
0.0889238
0.0890242
0.0890669
0.0890805
0.0890804
0.0890744
0.0890665
0.0890584
0.0890507
0.0890437
0.0890374
0.0890317
0.0890264
0.0890212
0.0890157
0.0890092
0.0890003
0.0889861
0.0889614
0.088917
0.0888362
0.0886911
0.0884343
0.0879868
0.0872124
0.0858608
0.0834195
0.0786694
0.0680389
0.0369594
0.0373539
0.0679109
0.0796238
0.0848667
0.0874553
0.0888101
0.089538
0.0899283
0.0901316
0.0902309
0.0902734
0.0902867
0.0902862
0.0902799
0.0902717
0.0902635
0.0902558
0.0902488
0.0902427
0.0902371
0.090232
0.0902269
0.0902215
0.0902148
0.0902052
0.0901895
0.090162
0.0901127
0.0900242
0.0898675
0.0895948
0.089127
0.0883283
0.0869482
0.0844692
0.0796511
0.068847
0.0372608
0.0377341
0.0687642
0.0807102
0.0859658
0.0885128
0.0898289
0.0905307
0.0909055
0.0910997
0.0911934
0.0912322
0.091243
0.0912405
0.0912327
0.0912233
0.0912141
0.0912057
0.0911984
0.091192
0.0911863
0.0911811
0.0911759
0.0911704
0.0911633
0.0911528
0.0911355
0.0911051
0.0910511
0.0909554
0.0907882
0.0905014
0.0900158
0.0891961
0.0877906
0.0852766
0.0803953
0.0694416
0.0374742
0.038262
0.0697095
0.0818086
0.0869975
0.0894533
0.0907031
0.0913632
0.0917129
0.0918919
0.0919758
0.0920082
0.0920144
0.0920084
0.0919979
0.0919864
0.0919756
0.0919661
0.0919579
0.0919508
0.0919446
0.091939
0.0919336
0.0919276
0.0919199
0.0919084
0.0918894
0.0918562
0.0917977
0.0916951
0.0915184
0.0912189
0.0907177
0.089879
0.0884502
0.0859034
0.0809631
0.0698798
0.0376243
0.0392659
0.0709245
0.0830126
0.0880154
0.0903184
0.0914728
0.0920764
0.0923926
0.0925512
0.0926221
0.0926458
0.0926458
0.0926352
0.092621
0.0926068
0.0925939
0.0925826
0.0925731
0.092565
0.092558
0.0925518
0.0925457
0.0925391
0.0925306
0.0925179
0.0924971
0.0924611
0.0923982
0.0922893
0.0921038
0.0917929
0.0912775
0.0904217
0.0889713
0.0863932
0.0813982
0.0702033
0.0377292
0.0414548
0.0726243
0.0843902
0.0890447
0.0911284
0.0921604
0.0926956
0.0929721
0.0931066
0.0931622
0.0931757
0.0931683
0.0931523
0.093134
0.0931165
0.093101
0.0930877
0.0930766
0.0930672
0.0930591
0.0930519
0.0930451
0.0930376
0.0930282
0.0930143
0.0929915
0.0929527
0.0928857
0.0927708
0.0925773
0.092256
0.0917277
0.0908561
0.0893854
0.0867779
0.0817327
0.0704426
0.0378028
0.0459318
0.07505
0.0859501
0.0900706
0.0918804
0.0927722
0.0932324
0.0934666
0.0935755
0.0936151
0.0936179
0.093603
0.0935814
0.0935588
0.0935379
0.0935197
0.0935043
0.0934914
0.0934805
0.0934713
0.0934631
0.0934553
0.093447
0.0934365
0.0934212
0.0933966
0.0933551
0.0932841
0.0931637
0.0929627
0.0926319
0.0920919
0.0912057
0.089716
0.087081
0.0819907
0.0706207
0.0378566
0.0534186
0.078296
0.0875833
0.0910299
0.0925491
0.0933002
0.0936871
0.0938807
0.0939659
0.0939907
0.0939839
0.0939624
0.0939359
0.0939096
0.0938857
0.0938652
0.0938479
0.0938334
0.0938213
0.093811
0.0938019
0.0937933
0.0937841
0.0937726
0.093756
0.0937297
0.0936856
0.0936109
0.0934855
0.0932778
0.0929383
0.0923875
0.0914878
0.0899805
0.0873202
0.0821899
0.0707547
0.0379004
0.0360117
0.0681411
0.0806754
0.0867528
0.0900812
0.0920569
0.0933026
0.0941277
0.0946992
0.0951133
0.0954287
0.095683
0.0959011
0.096099
0.0962865
0.0964675
0.0966402
0.0967961
0.0969205
0.0969949
0.0970017
0.0969299
0.0968022
0.0967272
0.0967668
0.0972507
0.106535
0.107944
0.104292
0.101493
0.0996673
0.0983865
0.0974461
0.0967376
0.0961873
0.0957406
0.0953579
0.0950101
0.0946774
0.0943478
0.0940159
0.0936807
0.0933339
0.0928965
0.0911754
0.0725772
0.0360779
0.0681422
0.080787
0.0869507
0.0903365
0.0923489
0.0936179
0.0944577
0.0950382
0.0954569
0.0957733
0.096025
0.0962369
0.0964252
0.0965997
0.0967643
0.0969169
0.097049
0.0971449
0.0971837
0.0971426
0.0970056
0.0968056
0.0966495
0.096648
0.0971409
0.107878
0.109101
0.104905
0.101749
0.0998557
0.0986188
0.097727
0.097049
0.0965157
0.0960796
0.0957045
0.0953631
0.0950366
0.0947156
0.0944034
0.0941205
0.0939119
0.093839
0.0938117
0.0914796
0.0361523
0.06812
0.0808167
0.0870291
0.0904538
0.0924968
0.0937903
0.09465
0.0952463
0.0956773
0.0960024
0.0962596
0.096474
0.0966621
0.0968339
0.0969933
0.0971377
0.0972573
0.0973345
0.0973449
0.0972628
0.0970743
0.0968262
0.0966307
0.096623
0.097186
0.108859
0.109874
0.105387
0.101979
0.100013
0.098811
0.097973
0.0973335
0.0968203
0.0963921
0.0960183
0.0956752
0.0953462
0.0950242
0.0947162
0.0944508
0.0942886
0.0943341
0.0946916
0.0948054
0.0362409
0.0681147
0.0808193
0.0870467
0.0904885
0.0925498
0.0938618
0.0947392
0.0953514
0.0957957
0.096131
0.0963952
0.0966136
0.0968027
0.0969727
0.0971272
0.0972631
0.0973695
0.0974271
0.0974105
0.0972946
0.0970726
0.0968042
0.0966025
0.0966073
0.097286
0.109398
0.110128
0.105616
0.102115
0.100102
0.0989232
0.0981363
0.0975429
0.0970617
0.0966532
0.0962921
0.0959594
0.0956421
0.0953369
0.0950545
0.0948273
0.094717
0.094815
0.0951884
0.0956095
0.0363387
0.0681298
0.0808187
0.0870382
0.0904795
0.092546
0.0938672
0.0947558
0.0953793
0.0958335
0.0961764
0.0964452
0.096665
0.0968523
0.0970171
0.0971631
0.0972865
0.097376
0.0974123
0.0973709
0.0972311
0.0969943
0.0967286
0.096542
0.0965677
0.0974314
0.109757
0.110057
0.105623
0.10214
0.100112
0.0989487
0.0982032
0.0976562
0.0972146
0.0968374
0.0965021
0.0961939
0.0959039
0.0956322
0.095392
0.095215
0.0951544
0.0952763
0.0956068
0.0959673
0.0364411
0.0681611
0.080823
0.0870219
0.0904504
0.0925116
0.093833
0.0947252
0.0953538
0.0958128
0.0961589
0.0964283
0.0966457
0.0968275
0.0969834
0.097117
0.0972247
0.0972953
0.0973108
0.0972498
0.0970967
0.0968606
0.0966127
0.0964515
0.0965004
0.0976589
0.110102
0.109873
0.105516
0.102091
0.100061
0.0989035
0.0981861
0.097679
0.097278
0.0969379
0.0966365
0.0963617
0.0961079
0.0958775
0.095684
0.0955551
0.095532
0.0956563
0.0959252
0.0961865
0.0365448
0.0682039
0.0808343
0.087006
0.0904145
0.0924628
0.0937773
0.0946666
0.0952946
0.0957533
0.0960981
0.0963644
0.0965761
0.0967493
0.0968937
0.0970128
0.0971035
0.0971557
0.0971535
0.0970793
0.0969227
0.0966981
0.0964753
0.0963417
0.0964135
0.0980424
0.110477
0.1097
0.105389
0.102014
0.0999768
0.0988124
0.098109
0.0976317
0.097267
0.0969639
0.0966988
0.0964605
0.0962453
0.0960565
0.0959068
0.0958188
0.0958225
0.095942
0.096161
0.0963538
0.0366478
0.0682545
0.0808522
0.086994
0.0903787
0.0924096
0.0937121
0.0945938
0.0952165
0.0956709
0.0960111
0.0962714
0.0964751
0.096638
0.0967698
0.0968742
0.0969488
0.0969851
0.0969696
0.0968884
0.0967356
0.0965282
0.0963323
0.0962246
0.0963191
0.0986738
0.110896
0.109601
0.105299
0.101944
0.0998841
0.0986994
0.0979971
0.0975391
0.0972038
0.0969339
0.0967032
0.0965002
0.0963215
0.0961709
0.0960594
0.0960051
0.0960298
0.0961469
0.0963352
0.0964888
0.0367487
0.0683104
0.0808759
0.0869872
0.0903464
0.0923575
0.0936453
0.0945161
0.0951306
0.095578
0.0959112
0.0961638
0.0963584
0.0965105
0.0966299
0.0967207
0.0967814
0.096805
0.0967806
0.0966976
0.0965531
0.0963653
0.0961948
0.0961094
0.096226
0.0997037
0.111368
0.109602
0.10527
0.101898
0.0997986
0.0985827
0.0978713
0.0974235
0.0971102
0.0968682
0.0966678
0.0964963
0.0963501
0.0962326
0.0961534
0.0961273
0.0961703
0.0962902
0.096464
0.0965982
0.0368467
0.0683697
0.0809044
0.0869858
0.0903194
0.0923096
0.0935811
0.0944394
0.0950439
0.0954828
0.0958079
0.0960519
0.0962372
0.096379
0.0964871
0.0965661
0.0966154
0.0966296
0.0966002
0.0965189
0.0963852
0.096217
0.0960691
0.0960018
0.0961375
0.101214
0.111882
0.109691
0.105297
0.101879
0.0997273
0.0984734
0.0977463
0.0973016
0.0970038
0.096784
0.096609
0.0964644
0.0963459
0.0962564
0.0962041
0.0962016
0.0962618
0.0963887
0.0965593
0.0966857
0.0369411
0.0684309
0.0809366
0.0869895
0.090298
0.0922674
0.0935222
0.0943671
0.0949609
0.0953905
0.095707
0.0959426
0.096119
0.0962513
0.0963496
0.0964187
0.0964592
0.0964669
0.0964352
0.096358
0.0962359
0.0960861
0.0959578
0.0959047
0.0960526
0.10315
0.112421
0.109837
0.105359
0.10188
0.0996706
0.0983767
0.0976305
0.0971843
0.0968967
0.0966939
0.0965395
0.0964172
0.0963217
0.0962552
0.0962253
0.0962429
0.0963188
0.0964555
0.096629
0.0967542
0.0370317
0.0684931
0.0809718
0.0869977
0.0902821
0.0922312
0.0934694
0.094301
0.0948838
0.0953041
0.0956122
0.0958395
0.0960077
0.0961318
0.0962217
0.096283
0.0963168
0.0963203
0.0962884
0.0962165
0.0961061
0.0959731
0.0958614
0.095819
0.0959684
0.105373
0.112937
0.109994
0.105429
0.101888
0.0996256
0.0982938
0.0975279
0.0970773
0.0967959
0.0966059
0.0964679
0.0963636
0.0962869
0.0962393
0.0962276
0.0962621
0.0963524
0.0964996
0.096679
0.096806
0.0371183
0.0685556
0.0810092
0.0870097
0.0902714
0.0922011
0.0934232
0.0942417
0.0948138
0.095225
0.095525
0.0957448
0.0959057
0.0960226
0.0961056
0.0961607
0.0961896
0.0961906
0.0961598
0.0960937
0.0959945
0.0958766
0.0957792
0.0957457
0.0958967
0.107317
0.11338
0.110126
0.105488
0.101896
0.0995886
0.0982237
0.0974393
0.096983
0.0967052
0.0965246
0.0963993
0.0963094
0.0962478
0.0962155
0.0962188
0.0962673
0.0963702
0.0965275
0.0967138
0.0968435
0.0372009
0.0686177
0.0810482
0.0870251
0.0902654
0.0921766
0.0933833
0.0941893
0.0947511
0.0951537
0.0954461
0.095659
0.0958134
0.0959242
0.0960016
0.0960518
0.0960772
0.0960769
0.096048
0.095988
0.0958992
0.0957948
0.0957099
0.0956837
0.0958323
0.109031
0.113744
0.110224
0.105529
0.1019
0.0995571
0.0981649
0.0973641
0.0969017
0.0966257
0.096452
0.0963365
0.0962579
0.0962084
0.0961883
0.0962037
0.0962638
0.0963773
0.0965438
0.0967368
0.0968694
0.0372793
0.0686792
0.0810884
0.0870433
0.0902635
0.0921573
0.0933495
0.0941436
0.0946956
0.0950901
0.0953754
0.0955822
0.0957309
0.0958365
0.0959093
0.0959558
0.0959787
0.095978
0.0959514
0.0958973
0.095818
0.0957257
0.0956518
0.0956326
0.0957825
0.110331
0.11403
0.110294
0.105554
0.101899
0.0995296
0.0981155
0.0973008
0.0968327
0.0965573
0.0963886
0.0962806
0.096211
0.096171
0.0961606
0.0961857
0.0962552
0.0963776
0.0965519
0.0967509
0.096886
0.0373537
0.0687398
0.0811292
0.0870638
0.0902653
0.0921427
0.0933212
0.0941041
0.0946469
0.0950338
0.0953127
0.0955138
0.0956576
0.0957589
0.0958279
0.0958714
0.0958927
0.0958921
0.0958681
0.0958196
0.095749
0.0956676
0.0956035
0.0955915
0.0957548
0.111145
0.114254
0.110348
0.105572
0.101896
0.0995058
0.098074
0.0972478
0.0967745
0.0964993
0.0963342
0.0962321
0.0961694
0.0961369
0.0961342
0.0961669
0.096244
0.0963736
0.0965545
0.0967584
0.0968956
0.0374242
0.0687992
0.0811705
0.0870861
0.0902702
0.0921324
0.093298
0.0940702
0.0946045
0.0949842
0.0952572
0.0954533
0.0955928
0.0956903
0.0957563
0.0957975
0.0958177
0.0958175
0.0957962
0.0957529
0.0956902
0.0956185
0.0955632
0.0955579
0.0957349
0.111832
0.114469
0.110408
0.105591
0.101894
0.0994858
0.0980392
0.0972035
0.096726
0.0964508
0.0962884
0.0961908
0.0961335
0.0961068
0.09611
0.0961487
0.0962318
0.0963673
0.0965534
0.0967614
0.0969
0.0374909
0.0688575
0.0812119
0.08711
0.0902778
0.0921256
0.0932792
0.0940415
0.0945677
0.0949408
0.0952084
0.0954
0.0955357
0.09563
0.0956934
0.0957329
0.0957524
0.0957529
0.0957342
0.0956958
0.0956402
0.0955772
0.0955296
0.0955303
0.0957208
0.112481
0.114701
0.110487
0.105618
0.101895
0.0994694
0.0980103
0.0971669
0.0966861
0.0964108
0.0962507
0.0961565
0.0961033
0.096081
0.0960888
0.0961322
0.0962199
0.0963599
0.0965501
0.0967612
0.0969007
0.0375538
0.0689144
0.0812531
0.0871349
0.0902876
0.0921221
0.0932643
0.0940173
0.094536
0.094903
0.0951657
0.0953531
0.0954854
0.095577
0.0956383
0.0956765
0.0956955
0.0956969
0.0956806
0.0956467
0.0955976
0.0955423
0.0955017
0.0955077
0.0957126
0.113084
0.114942
0.110579
0.105651
0.1019
0.0994565
0.0979867
0.0971372
0.096654
0.0963788
0.0962204
0.0961289
0.0960788
0.0960598
0.096071
0.0961178
0.096209
0.0963524
0.0965457
0.0967589
0.0968987
0.037613
0.0689699
0.0812939
0.0871606
0.0902993
0.0921213
0.093253
0.0939973
0.0945089
0.0948702
0.0951283
0.095312
0.0954413
0.0955305
0.0955901
0.0956272
0.095646
0.0956483
0.0956344
0.0956045
0.0955613
0.0955129
0.0954785
0.0954897
0.095712
0.113608
0.115178
0.110678
0.105688
0.101906
0.0994468
0.0979679
0.097114
0.0966292
0.0963543
0.0961973
0.0961078
0.09606
0.0960433
0.0960569
0.096106
0.0961997
0.0963455
0.0965409
0.0967554
0.0968948
0.0376686
0.0690237
0.0813341
0.0871868
0.0903124
0.0921228
0.0932446
0.0939808
0.0944858
0.0948419
0.0950957
0.0952761
0.0954027
0.0954899
0.095548
0.0955843
0.095603
0.0956062
0.0955945
0.0955684
0.0955303
0.0954882
0.0954594
0.0954753
0.0957179
0.114072
0.115406
0.110779
0.105727
0.101915
0.0994402
0.097954
0.0970971
0.0966116
0.0963372
0.0961814
0.0960932
0.0960468
0.0960316
0.0960465
0.0960971
0.0961923
0.0963395
0.0965362
0.096751
0.0968894
0.0377207
0.0690757
0.0813735
0.0872131
0.0903266
0.0921263
0.0932389
0.0939675
0.0944663
0.0948176
0.0950675
0.0952448
0.095369
0.0954544
0.0955112
0.0955469
0.0955656
0.0955698
0.0955602
0.0955374
0.095504
0.0954674
0.0954437
0.0954642
0.09573
0.114496
0.11563
0.110883
0.105768
0.101925
0.0994369
0.0979454
0.0970868
0.0966014
0.0963278
0.0961728
0.0960853
0.0960395
0.0960247
0.0960401
0.0960913
0.096187
0.0963348
0.0965317
0.096746
0.0968828
0.0377692
0.0691258
0.0814118
0.0872394
0.0903417
0.0921313
0.0932354
0.0939569
0.0944501
0.0947967
0.095043
0.0952175
0.0953396
0.0954234
0.0954792
0.0955143
0.0955332
0.0955383
0.0955306
0.0955109
0.0954817
0.0954501
0.0954309
0.0954558
0.0957483
0.114896
0.115856
0.11099
0.105811
0.101938
0.0994378
0.0979426
0.0970839
0.0965994
0.0963265
0.0961719
0.0960844
0.0960382
0.096023
0.096038
0.0960887
0.0961841
0.0963314
0.0965276
0.0967405
0.0968749
0.0378144
0.069174
0.081449
0.0872654
0.0903573
0.0921377
0.0932338
0.0939488
0.0944366
0.094779
0.095022
0.095194
0.0953141
0.0953965
0.0954514
0.0954861
0.0955052
0.0955112
0.0955052
0.0954883
0.0954629
0.0954358
0.0954208
0.0954499
0.0957732
0.115285
0.116088
0.111103
0.105857
0.101954
0.0994437
0.097947
0.0970895
0.0966063
0.0963341
0.0961792
0.0960908
0.0960434
0.0960267
0.0960402
0.0960895
0.0961836
0.0963295
0.096524
0.0967346
0.0968658
0.0378562
0.0692201
0.0814849
0.0872911
0.0903734
0.0921452
0.0932339
0.0939427
0.0944256
0.0947641
0.095004
0.0951736
0.095292
0.0953731
0.0954273
0.0954617
0.095481
0.0954879
0.0954836
0.0954692
0.0954473
0.0954242
0.095413
0.0954461
0.0958056
0.115671
0.116331
0.111223
0.105908
0.101975
0.0994562
0.0979601
0.0971053
0.0966238
0.0963518
0.0961958
0.0961054
0.0960554
0.096036
0.0960469
0.0960938
0.0961855
0.0963291
0.0965208
0.096728
0.0968554
0.0378948
0.0692642
0.0815195
0.0873163
0.0903898
0.0921537
0.0932355
0.0939386
0.0944169
0.0947517
0.0949888
0.0951563
0.0952731
0.0953531
0.0954065
0.0954407
0.0954603
0.0954681
0.0954653
0.0954532
0.0954345
0.0954151
0.0954073
0.0954445
0.0958466
0.116067
0.116589
0.111354
0.105965
0.102002
0.0994775
0.0979844
0.0971335
0.0966539
0.0963813
0.0962229
0.0961289
0.0960748
0.0960514
0.0960584
0.0961017
0.0961899
0.09633
0.0965178
0.0967205
0.0968432
0.0379301
0.069306
0.0815527
0.087341
0.0904065
0.0921631
0.0932385
0.0939363
0.0944102
0.0947417
0.0949762
0.0951417
0.095257
0.095336
0.0953888
0.0954228
0.0954427
0.0954513
0.09545
0.0954402
0.0954243
0.0954082
0.0954037
0.0954449
0.0958983
0.116486
0.116871
0.111496
0.106029
0.102038
0.0995104
0.0980232
0.0971774
0.0966994
0.0964248
0.0962621
0.0961625
0.0961025
0.0960733
0.0960749
0.0961132
0.0961967
0.0963321
0.0965148
0.0967119
0.0968291
0.037962
0.0693453
0.0815844
0.0873652
0.0904235
0.0921733
0.0932428
0.0939356
0.0944056
0.094734
0.094966
0.0951296
0.0952436
0.0953216
0.0953738
0.0954077
0.0954279
0.0954373
0.0954375
0.0954298
0.0954166
0.0954037
0.0954022
0.0954475
0.0959634
0.116942
0.117182
0.111654
0.106101
0.102083
0.0995585
0.0980807
0.0972412
0.0967637
0.0964851
0.0963153
0.0962075
0.0961392
0.0961021
0.0960966
0.0961284
0.0962059
0.0963351
0.0965114
0.0967017
0.0968125
0.0379904
0.0693814
0.0816145
0.0873891
0.090441
0.0921845
0.0932485
0.0939367
0.094403
0.0947285
0.0949583
0.0951201
0.0952327
0.0953098
0.0953614
0.0953951
0.0954156
0.0954258
0.0954275
0.0954219
0.0954114
0.0954015
0.095403
0.0954525
0.0960463
0.117449
0.117529
0.111825
0.106181
0.102142
0.0996264
0.0981627
0.0973302
0.0968515
0.0965654
0.096385
0.0962654
0.0961858
0.0961383
0.0961236
0.0961472
0.0962171
0.0963389
0.0965074
0.0966896
0.0967932
0.0380151
0.0694135
0.0816431
0.0874128
0.0904589
0.0921968
0.0932557
0.0939397
0.0944027
0.0947255
0.0949532
0.0951133
0.0952245
0.0953005
0.0953515
0.0953848
0.0954056
0.0954167
0.0954199
0.0954164
0.0954087
0.0954018
0.0954063
0.0954604
0.0961536
0.118025
0.117912
0.112003
0.106264
0.102214
0.0997201
0.0982767
0.0974517
0.0969683
0.0966698
0.0964735
0.0963378
0.096243
0.0961822
0.0961559
0.0961695
0.0962301
0.0963429
0.0965023
0.096675
0.0967706
0.0380366
0.0694413
0.0816701
0.0874364
0.0904775
0.0922103
0.0932647
0.093945
0.0944051
0.0947254
0.094951
0.0951093
0.095219
0.0952938
0.0953439
0.0953769
0.0953978
0.0954098
0.0954145
0.0954135
0.0954087
0.0954052
0.0954128
0.0954718
0.0962949
0.118678
0.118313
0.112163
0.106336
0.102299
0.0998473
0.0984329
0.0976146
0.0971207
0.0968025
0.0965835
0.0964258
0.0963114
0.0962338
0.0961934
0.0961948
0.0962445
0.0963468
0.0964954
0.0966575
0.0967442
0.0380576
0.0694657
0.0816963
0.08746
0.0904968
0.0922253
0.0932761
0.0939535
0.094411
0.0947291
0.0949525
0.0951088
0.0952166
0.0952899
0.095339
0.0953714
0.0953924
0.0954051
0.0954116
0.0954132
0.0954119
0.0954123
0.0954236
0.0954878
0.0964857
0.119389
0.118674
0.11225
0.106371
0.102398
0.100019
0.0986432
0.0978284
0.0973151
0.0969672
0.0967167
0.0965299
0.0963908
0.0962927
0.0962354
0.0962226
0.0962597
0.0963498
0.0964863
0.0966364
0.0967137
0.0380906
0.0695004
0.081729
0.0874865
0.0905182
0.0922429
0.0932912
0.0939665
0.094422
0.0947378
0.0949587
0.0951125
0.0952181
0.0952895
0.0953372
0.0953689
0.0953898
0.0954033
0.0954117
0.0954163
0.0954192
0.0954244
0.0954403
0.0955104
0.0967567
0.120055
0.11885
0.112165
0.106334
0.10251
0.100247
0.098921
0.0981027
0.0975569
0.0971663
0.0968735
0.0966497
0.0964801
0.0963577
0.0962808
0.0962519
0.0962747
0.0963514
0.0964742
0.0966111
0.0966783
0.0381841
0.0696007
0.0817999
0.0875315
0.0905488
0.0922672
0.0933129
0.0939867
0.0944402
0.0947533
0.0949711
0.0951217
0.0952245
0.0952937
0.0953398
0.0953706
0.0953914
0.0954058
0.0954161
0.0954243
0.0954323
0.0954438
0.0954661
0.0955424
0.0971579
0.120382
0.118543
0.111757
0.10618
0.102641
0.100551
0.0992812
0.0984456
0.0978489
0.0973992
0.097052
0.0967828
0.0965771
0.0964267
0.096328
0.0962812
0.0962885
0.0963504
0.0964585
0.0965812
0.0966378
0.0384548
0.0698523
0.0819592
0.0876219
0.090603
0.0923067
0.0933471
0.0940183
0.0944689
0.0947782
0.0949918
0.0951384
0.0952379
0.0953046
0.095349
0.0953789
0.0953997
0.0954152
0.0954279
0.0954403
0.0954547
0.0954746
0.0955064
0.0955902
0.0976333
0.119823
0.117344
0.110876
0.105904
0.102826
0.100959
0.0997377
0.0988597
0.0981877
0.0976607
0.0972466
0.0969243
0.0966779
0.0964968
0.0963745
0.0963088
0.0962996
0.0963459
0.0964385
0.0965462
0.0965919
0.0390447
0.0703546
0.0822563
0.0877858
0.0907005
0.0923754
0.0934038
0.0940682
0.0945129
0.0948163
0.0950243
0.0951662
0.0952621
0.0953263
0.0953694
0.0953988
0.0954199
0.0954367
0.0954522
0.0954692
0.0954911
0.0955225
0.0955699
0.0956724
0.0979857
0.118075
0.11511
0.109592