/*--------------------------------*- C++ -*----------------------------------*\
  =========                 |
  \\      /  F ield         | OpenFOAM: The Open Source CFD Toolbox
   \\    /   O peration     | Website:  https://openfoam.org
    \\  /    A nd           | Version:  7
     \\/     M anipulation  |
\*---------------------------------------------------------------------------*/
FoamFile
{
    version     2.0;
    format      ascii;
    class       volScalarField;
    location    "0.05";
    object      nut;
}
// * * * * * * * * * * * * * * * * * * * * * * * * * * * * * * * * * * * * * //

dimensions      [0 2 -1 0 0 0 0];

internalField   nonuniform List<scalar> 
9072
(
5.37124e-05
4.1745e-05
4.62046e-05
4.89143e-05
5.04935e-05
5.14308e-05
5.20264e-05
5.24558e-05
5.28169e-05
5.31621e-05
5.35198e-05
5.39062e-05
5.43323e-05
5.48082e-05
5.53459e-05
5.59614e-05
5.66776e-05
5.75278e-05
5.85598e-05
5.98228e-05
6.13299e-05
6.30171e-05
6.44503e-05
6.44837e-05
6.30901e-05
6.05652e-05
5.78686e-05
5.56108e-05
5.3866e-05
5.11424e-05
4.68042e-05
4.61547e-05
5.15441e-05
0.00026329
0.000284282
0.000291887
0.000293556
0.000293055
0.000291745
0.000289897
0.000287254
0.000283005
0.000275264
0.000260043
0.000231049
0.000189605
0.00010191
0.000246487
0.000337281
0.000392062
0.000423755
0.00044146
0.000451196
0.000456673
0.000460047
0.000462512
0.000464723
0.000467045
0.000469706
0.000472887
0.000476774
0.000481605
0.00048771
0.000495559
0.00050576
0.000518704
0.000533878
0.000547161
0.000549834
0.000532731
0.000489749
0.00042866
0.000373645
0.000335823
0.000262236
0.000206308
0.000205951
0.0002457
0.000298286
0.000447967
0.000528547
0.000556704
0.000563625
0.000563166
0.000559422
0.000552664
0.000541404
0.000522269
0.000488838
0.000429596
0.000323368
0.000110452
0.000108833
0.000391366
0.000597407
0.000736716
0.000825308
0.000878986
0.000910694
0.000929583
0.000941512
0.000949994
0.000957065
0.000963912
0.00097127
0.00097967
0.000989598
0.0010016
0.00101639
0.00103486
0.00105796
0.00108596
0.00111676
0.00114169
0.00114365
0.00110354
0.00100157
0.000859551
0.000721083
0.000651106
0.000574757
0.000518947
0.000537608
0.000609076
0.000690868
0.000798519
0.000864031
0.00089081
0.000897681
0.00089543
0.000887349
0.000872561
0.000847472
0.000805294
0.000734708
0.000618089
0.000427351
0.000114696
0.000113239
0.000500637
0.000822283
0.00105875
0.00121985
0.00132331
0.00138736
0.00142667
0.00145151
0.00146851
0.00148172
0.0014936
0.00150564
0.00151888
0.00153416
0.00155228
0.00157418
0.00160086
0.00163315
0.00167053
0.00170911
0.00173706
0.00173206
0.00166525
0.00150194
0.00128566
0.00111891
0.00102435
0.000934511
0.000894765
0.000935774
0.00102306
0.00111471
0.00120156
0.00125551
0.00127952
0.00128546
0.00128074
0.00126694
0.00124125
0.00119716
0.00112375
0.00100472
0.000817811
0.000532581
0.000119833
0.000116424
0.000586449
0.00101893
0.00135955
0.00160514
0.00177068
0.00187725
0.00194436
0.00198696
0.00201535
0.00203619
0.00205363
0.00207026
0.00208776
0.00210738
0.00213018
0.00215717
0.00218925
0.00222676
0.00226828
0.00230846
0.00233369
0.0023185
0.00222493
0.00200729
0.00173953
0.00158509
0.00145733
0.00137707
0.00135146
0.00139422
0.00147908
0.00156772
0.00164272
0.00169002
0.00171238
0.00171744
0.00170967
0.00168853
0.00164861
0.00157973
0.00146627
0.00128726
0.00101778
0.000629955
0.000124302
0.000118802
0.000654378
0.00118912
0.00163562
0.00197364
0.00221127
0.0023697
0.00247199
0.00253754
0.00258062
0.00261093
0.00263473
0.00265601
0.00267731
0.00270037
0.0027265
0.00275672
0.00279168
0.00283121
0.00287309
0.00291112
0.00293107
0.00290612
0.00279083
0.00254068
0.0022837
0.00208936
0.00196205
0.00189186
0.00186522
0.00189727
0.0019701
0.00204952
0.00211571
0.00215876
0.00218007
0.00218399
0.00217223
0.00214165
0.00208361
0.0019836
0.00182113
0.00157135
0.00120934
0.00071532
0.000127954
0.000120594
0.000708338
0.00133439
0.00188378
0.0023178
0.0026345
0.00285247
0.00299668
0.00309031
0.00315156
0.00319343
0.00322466
0.00325088
0.00327572
0.00330151
0.00332986
0.00336179
0.00339772
0.00343702
0.00347698
0.00351112
0.00352561
0.00349423
0.00336786
0.00311867
0.00296862
0.00268124
0.00253346
0.00245539
0.00241652
0.00243212
0.0024885
0.00255579
0.0026139
0.00265331
0.00267337
0.00267538
0.00265816
0.00261551
0.002535
0.0023974
0.00217751
0.00184792
0.00138678
0.000787712
0.000130906
0.000121961
0.000751408
0.00145688
0.00210258
0.00263203
0.00303143
0.00331443
0.00350612
0.00363245
0.00371527
0.00377092
0.0038108
0.00384246
0.00387078
0.00389883
0.00392858
0.00396113
0.00399673
0.00403446
0.00407142
0.00410138
0.00411169
0.0040786
0.00395532
0.00373461
0.00366705
0.00333246
0.00314961
0.00304779
0.00299013
0.00298701
0.00302553
0.00307956
0.00312946
0.00316495
0.00318291
0.00318172
0.0031571
0.00309941
0.00299198
0.00281077
0.00252636
0.00211045
0.0015473
0.000848076
0.000133322
0.000123019
0.000786017
0.00155917
0.00229222
0.00291311
0.00339562
0.00374669
0.00398983
0.00415267
0.00426007
0.00433161
0.00438144
0.00441918
0.00445109
0.00448117
0.00451181
0.00454428
0.0045788
0.00461434
0.00464808
0.00467439
0.00468238
0.00465211
0.0045436
0.00436892
0.00433612
0.00400242
0.00378471
0.00365165
0.00357266
0.00355059
0.00357158
0.00361227
0.0036537
0.00368453
0.0036992
0.00369318
0.00365898
0.00358322
0.00344482
0.00321503
0.00286101
0.00235524
0.00169069
0.000898427
0.000135367
0.000123852
0.000814046
0.00164391
0.0024541
0.00315991
0.00372311
0.00414289
0.00443975
0.00464179
0.00477621
0.0048655
0.00492651
0.00497099
0.00500677
0.00503879
0.00507006
0.00510208
0.00513518
0.0051684
0.00519918
0.00522268
0.00523011
0.00520601
0.00512022
0.00499892
0.00498776
0.00466537
0.00441693
0.0042521
0.00415197
0.00411201
0.00411677
0.00414474
0.00417757
0.0042029
0.00421296
0.0042004
0.00415446
0.00405796
0.00388541
0.00360371
0.00317746
0.00258137
0.00181881
0.000941399
0.000137207
0.000124518
0.000836916
0.00171359
0.0025903
0.00337285
0.00401214
0.00449915
0.0048503
0.00509305
0.00525618
0.00536468
0.00543791
0.00548979
0.00552973
0.00556378
0.00559557
0.00562701
0.00565862
0.00568962
0.00571784
0.00573935
0.00574742
0.0057312
0.00567141
0.00560147
0.00560586
0.00529997
0.00502894
0.00483629
0.0047171
0.00466127
0.00465168
0.00466797
0.00469225
0.00471136
0.00471555
0.00469485
0.00463535
0.00451614
0.00430756
0.00397268
0.00347432
0.00279036
0.00193523
0.000980096
0.00013902
0.000125056
0.000855638
0.00177033
0.0027032
0.00355348
0.00426271
0.00481377
0.00521823
0.00550203
0.00569477
0.00582343
0.00590968
0.0059695
0.00601391
0.00605009
0.00608243
0.00611328
0.00614345
0.00617243
0.00619848
0.00621853
0.00622778
0.00621959
0.00618509
0.00615717
0.00617316
0.00588946
0.00560713
0.0053933
0.00525852
0.00518952
0.00516782
0.0051737
0.0051897
0.00520204
0.00519931
0.00516922
0.00509492
0.00495203
0.00470716
0.00432011
0.00375255
0.00298581
0.00204485
0.00101817
0.000141019
0.000125489
0.000870823
0.00181581
0.00279515
0.00370401
0.00447616
0.00508683
0.00554236
0.00586649
0.00608894
0.0062382
0.00633795
0.00640608
0.00645521
0.00649367
0.00652663
0.00655694
0.00658575
0.00661289
0.00663702
0.00665585
0.00666617
0.0066649
0.00665333
0.00666028
0.00668035
0.00642291
0.00614174
0.00591459
0.00576853
0.00568948
0.00565803
0.00565491
0.00566303
0.00566826
0.00565789
0.0056176
0.005528
0.00536166
0.00508201
0.00464619
0.00401507
0.00317303
0.00215378
0.00106015
0.000143483
0.000125831
0.00088268
0.00185125
0.00286842
0.00382709
0.00465482
0.00531985
0.00582326
0.00618609
0.00643763
0.00660742
0.0067208
0.00679744
0.00685144
0.00689228
0.00692592
0.00695576
0.00698332
0.00700873
0.00703106
0.00704863
0.00705943
0.00706282
0.00706729
0.00709392
0.00711298
0.00689308
0.00662679
0.00639433
0.0062415
0.00615562
0.00611673
0.00610597
0.00610672
0.00610472
0.00608632
0.00603559
0.00593102
0.0057427
0.00543154
0.00495265
0.00426626
0.00335867
0.00226959
0.00111198
0.000146791
0.000126092
0.000891079
0.00187757
0.00292514
0.00392563
0.00480171
0.00551547
0.0060629
0.00646209
0.00674148
0.00693123
0.00705807
0.0071432
0.00720211
0.00724538
0.00727976
0.00730918
0.00733555
0.0073593
0.00737985
0.00739595
0.00740637
0.00741156
0.00742075
0.00744503
0.00746522
0.00729751
0.00705968
0.00682925
0.00667394
0.00658421
0.00653994
0.00652276
0.00651668
0.00650753
0.00648109
0.00642025
0.00630185
0.00609419
0.00575639
0.00524221
0.00451134
0.00355071
0.00240232
0.00118279
0.000151484
0.000126287
0.000895953
0.00189572
0.00296753
0.0040028
0.00492039
0.00567714
0.00626431
0.00669699
0.00700249
0.00721123
0.00735103
0.00744442
0.00750816
0.00755384
0.00758898
0.00761802
0.00764324
0.00766537
0.00768409
0.00769849
0.00770769
0.00771219
0.0077179
0.00773064
0.00775602
0.00763976
0.00744036
0.00721816
0.00706409
0.00697306
0.0069251
0.00690252
0.00689014
0.00687414
0.00684002
0.0067699
0.00663958
0.00641619
0.0060579
0.00551793
0.00475576
0.00375815
0.00256666
0.00129204
0.000159657
0.00018036
0.000232687
0.000266951
0.000284829
0.000292952
0.000296061
0.000296872
0.000296757
0.000296335
0.000295883
0.000295604
0.0002954
0.000295231
0.000295091
0.000294974
0.000294878
0.000294798
0.000294732
0.000294676
0.000294627
0.000294586
0.000294545
0.000294511
0.000294475
0.000294442
0.000294408
0.00029437
0.000294323
0.000294247
0.000294107
0.000293808
0.000293139
0.00029161
0.000288119
0.000280304
0.00026365
0.000231642
0.000141824
0.000121315
0.000335644
0.000466724
0.000542241
0.000581123
0.000598655
0.000605185
0.000606669
0.000606121
0.00060497
0.000603954
0.000603061
0.000602316
0.000601723
0.000601259
0.00060091
0.000600647
0.000600458
0.000600321
0.000600226
0.000600161
0.000600115
0.000600084
0.000600061
0.00060004
0.000600014
0.000599959
0.000599832
0.000599528
0.000598811
0.000597156
0.000593414
0.000585151
0.000567436
0.000531101
0.00046128
0.000337573
0.000121012
0.000126195
0.000446852
0.000681137
0.000830948
0.000916133
0.000959183
0.000978231
0.000985074
0.000986341
0.000985418
0.000983932
0.000982367
0.000980985
0.00097986
0.000978978
0.00097831
0.000977813
0.000977456
0.000977205
0.000977035
0.000976924
0.000976854
0.000976809
0.000976781
0.000976749
0.000976689
0.000976537
0.000976163
0.000975277
0.000973244
0.000968727
0.000958965
0.000938531
0.000897425
0.000819073
0.000680306
0.00045575
0.000126041
0.000130667
0.000552694
0.000897238
0.00113603
0.00128281
0.00136351
0.00140322
0.00142029
0.00142604
0.0014267
0.00142534
0.00142335
0.00142142
0.00141979
0.00141848
0.00141749
0.00141675
0.00141621
0.00141584
0.00141559
0.00141543
0.00141533
0.00141527
0.00141523
0.00141516
0.00141501
0.00141464
0.00141375
0.00141171
0.00140722
0.00139762
0.00137778
0.0013383
0.00126327
0.00112897
0.000906613
0.000571941
0.00013049
0.000134066
0.000644175
0.00110211
0.00144221
0.00166528
0.00179636
0.00186593
0.00189907
0.00191268
0.00191677
0.00191642
0.00191446
0.00191219
0.00191014
0.00190846
0.00190716
0.00190619
0.00190549
0.001905
0.00190467
0.00190447
0.00190434
0.00190427
0.0019042
0.00190406
0.00190374
0.00190295
0.00190113
0.00189711
0.00188855
0.00187091
0.0018359
0.00176931
0.00164896
0.00144494
0.0011261
0.000675574
0.000133991
0.000136632
0.000719063
0.00128752
0.00173678
0.00204846
0.002242
0.00235089
0.00240654
0.00243197
0.00244172
0.00244361
0.0024423
0.00244002
0.00243773
0.00243576
0.0024342
0.00243302
0.00243217
0.00243157
0.00243118
0.00243094
0.00243079
0.00243069
0.00243056
0.0024303
0.00242967
0.00242819
0.00242487
0.00241777
0.00240308
0.00237384
0.00231789
0.00221567
0.00203892
0.00175322
0.00132897
0.000762935
0.000136687
0.000138578
0.000778332
0.0014495
0.0020107
0.00241987
0.00268614
0.00284321
0.00292783
0.00296926
0.00298716
0.00299274
0.00299289
0.00299103
0.00298872
0.00298658
0.00298482
0.00298348
0.0029825
0.00298181
0.00298136
0.00298108
0.0029809
0.00298076
0.00298054
0.00298007
0.00297894
0.0029764
0.00297087
0.00295934
0.00293616
0.00289137
0.00280848
0.00266241
0.00241956
0.0020433
0.00150963
0.000834006
0.000138731
0.000140071
0.000824164
0.00158732
0.00225868
0.0027703
0.00311697
0.00332968
0.00344914
0.00351066
0.00353924
0.00355007
0.00355257
0.00355162
0.00354954
0.00354738
0.00354551
0.00354405
0.00354297
0.00354221
0.0035417
0.00354138
0.00354116
0.00354095
0.00354059
0.00353979
0.00353795
0.00353389
0.00352532
0.00350785
0.00347364
0.00340932
0.00329376
0.00309662
0.00278017
0.00230813
0.00166581
0.000890467
0.00014026
0.000141258
0.000859
0.00170229
0.00247863
0.00309393
0.00352569
0.0037995
0.00395858
0.00404372
0.00408536
0.00410294
0.00410868
0.00410915
0.00410761
0.00410558
0.0041037
0.00410217
0.00410101
0.00410019
0.00409964
0.00409927
0.004099
0.00409868
0.00409811
0.00409684
0.00409402
0.00408797
0.00407544
0.00405049
0.00400273
0.00391512
0.00376189
0.00350801
0.00311311
0.00254382
0.00179766
0.000934571
0.000141391
0.000142293
0.000885129
0.00179694
0.002671
0.00338809
0.00390655
0.00424459
0.00444655
0.00455801
0.00461464
0.00464028
0.00465009
0.00465247
0.00465176
0.00465004
0.00464823
0.00464668
0.00464549
0.00464462
0.00464402
0.0046436
0.00464325
0.0046428
0.00464193
0.00464005
0.00463598
0.00462741
0.00461002
0.00457609
0.00451248
0.00439837
0.00420356
0.00388912
0.00341371
0.00274908
0.0019068
0.000968581
0.000142221
0.000143393
0.000904412
0.00187432
0.00283817
0.00365284
0.00425676
0.00465964
0.00490593
0.00504533
0.00511825
0.00515295
0.0051675
0.00517222
0.0051726
0.00517134
0.0051697
0.0051682
0.00516699
0.00516609
0.00516545
0.00516497
0.00516453
0.00516389
0.00516266
0.00516002
0.00515441
0.00514283
0.00511975
0.00507551
0.00499411
0.00485102
0.004612
0.0042352
0.00367981
0.00292453
0.0019957
0.000994535
0.000142826
0.000144977
0.000917938
0.00193769
0.00298414
0.0038906
0.00457608
0.00504187
0.00533205
0.00549973
0.00558951
0.00563384
0.0056536
0.00566099
0.00566267
0.00566202
0.00566064
0.00565922
0.00565803
0.00565712
0.00565644
0.0056559
0.00565534
0.00565448
0.0056528
0.00564926
0.00564186
0.00562683
0.00559736
0.00554174
0.00544112
0.00526743
0.00498293
0.00454384
0.0039113
0.00307207
0.00206712
0.00101417
0.000143263
0.000147922
0.000925723
0.00199077
0.00311455
0.00410585
0.0048665
0.0053908
0.00572245
0.00591735
0.00602383
0.00607791
0.00610308
0.00611334
0.00611648
0.00611654
0.00611548
0.00611421
0.00611307
0.00611215
0.00611144
0.00611083
0.00611014
0.00610903
0.00610684
0.00610227
0.00609287
0.00607404
0.00603761
0.00596986
0.00584915
0.00564415
0.00531423
0.00481466
0.00410956
0.0031944
0.00212384
0.00102891
0.000143578
0.000153756
0.000927426
0.00203941
0.00323743
0.00430507
0.00513183
0.00570777
0.00607664
0.0062964
0.00641857
0.00648204
0.00651256
0.00652575
0.00653042
0.00653126
0.00653059
0.00652949
0.00652842
0.00652752
0.00652679
0.00652611
0.00652528
0.00652388
0.00652112
0.00651544
0.00650387
0.00648099
0.00643727
0.00635698
0.00621586
0.00597971
0.00560563
0.00504874
0.00427697
0.00329455
0.00216846
0.00103994
0.000143805
0.000163847
0.000927719
0.00209596
0.00336451
0.00449658
0.00537727
0.00599558
0.00639569
0.00663678
0.00677285
0.00684488
0.00688042
0.00689643
0.00690264
0.00690428
0.00690403
0.00690314
0.00690217
0.0069013
0.00690055
0.00689981
0.00689883
0.00689713
0.00689377
0.0068869
0.00687307
0.00684599
0.00679483
0.00670194
0.00654067
0.00627431
0.00585829
0.0052483
0.00441652
0.00337565
0.00220329
0.00104819
0.000143976
0.000177073
0.000957494
0.00218817
0.00351235
0.0046901
0.00560878
0.00625792
0.00668169
0.0069397
0.00708723
0.00716658
0.00720656
0.00722515
0.00723281
0.00723526
0.00723544
0.00723478
0.00723392
0.00723309
0.00723233
0.00723153
0.0072304
0.00722839
0.00722441
0.00721632
0.00720019
0.0071689
0.00711034
0.00700512
0.0068244
0.00652941
0.00607443
0.00541624
0.00453147
0.00344065
0.00223032
0.00105438
0.000144115
0.000126458
0.000898556
0.00191225
0.00301311
0.00409241
0.00506461
0.00587961
0.00652196
0.00700206
0.00734509
0.00758142
0.00774011
0.00784546
0.00791599
0.00796478
0.00800045
0.00802823
0.00805095
0.00806976
0.00808471
0.00809528
0.00810085
0.00810139
0.0080978
0.00809357
0.00810608
0.00809011
0.00796555
0.00776727
0.00762146
0.00753177
0.00747987
0.00744977
0.00742794
0.00740143
0.00735582
0.00727266
0.00712692
0.00688508
0.00650522
0.00594115
0.0051534
0.00412991
0.00291806
0.00165172
0.000482524
0.000126624
0.00089596
0.00191782
0.0030417
0.00415908
0.00518089
0.00605089
0.00674713
0.00727495
0.00765672
0.00792217
0.00810117
0.00821961
0.00829767
0.00834996
0.00838625
0.00841265
0.00843259
0.00844762
0.00845817
0.008464
0.0084647
0.0084601
0.00844912
0.00843708
0.00844569
0.00851272
0.00845911
0.00829296
0.00816049
0.00807561
0.00802264
0.00798727
0.00795771
0.00792244
0.00786797
0.00777658
0.00762431
0.00737955
0.00700356
0.00645462
0.00569792
0.00472381
0.00357517
0.00237701
0.00132679
0.000126804
0.000893233
0.00191841
0.00305509
0.00419556
0.00524896
0.00615529
0.00688821
0.00744934
0.00785877
0.0081454
0.00833941
0.00846759
0.0085513
0.00860616
0.00864283
0.00866805
0.00868569
0.00869768
0.0087047
0.00870684
0.00870406
0.00869678
0.0086845
0.00867356
0.00868074
0.0088087
0.008808
0.00867198
0.00855346
0.00847346
0.0084201
0.00838117
0.00834656
0.00830623
0.0082482
0.00815662
0.0080102
0.00778139
0.00743727
0.00694348
0.00627298
0.0054211
0.00442723
0.00339823
0.0025185
0.000127017
0.000891962
0.00191901
0.00306284
0.00421677
0.00528921
0.00621807
0.00697428
0.00755698
0.00798461
0.00828534
0.0084894
0.00862411
0.00871153
0.00876797
0.00880465
0.00882877
0.00884452
0.00885409
0.00885844
0.00885799
0.00885321
0.00884529
0.00883484
0.00882783
0.00883492
0.00900752
0.0090404
0.00893077
0.00882579
0.00875048
0.0086972
0.00865624
0.00861909
0.00857722
0.00852039
0.0084352
0.00830396
0.00810424
0.00781005
0.00739541
0.00684167
0.00614939
0.00535423
0.00454307
0.00386249
0.000127254
0.000891951
0.00192079
0.00306902
0.00423073
0.00531417
0.00625617
0.00702614
0.00762174
0.00806033
0.00836958
0.0085797
0.00871827
0.00880775
0.00886487
0.00890122
0.00892427
0.00893845
0.00894615
0.00894859
0.0089465
0.00894083
0.00893338
0.0089256
0.00892218
0.00893028
0.00913766
0.00918827
0.00909895
0.00900574
0.00893463
0.00888175
0.00883991
0.00880218
0.00876139
0.00870908
0.00863444
0.00852351
0.00835913
0.00812203
0.00779393
0.00736333
0.0068342
0.00623677
0.00563659
0.00513325
0.000127503
0.000892819
0.00192372
0.00307511
0.00424145
0.00533103
0.0062802
0.00705763
0.00766018
0.00810465
0.00841842
0.00863164
0.00877206
0.00886234
0.00891945
0.00895519
0.00897719
0.00899005
0.00899635
0.00899748
0.00899448
0.00898863
0.00898211
0.00897682
0.00897586
0.00898576
0.00922097
0.00927863
0.00920366
0.00911963
0.00905182
0.00899938
0.00895739
0.0089203
0.00888216
0.00883612
0.00877373
0.00868446
0.0085558
0.00837424
0.0081277
0.00780977
0.00742575
0.00699916
0.00657569
0.00621778
0.000127756
0.000894275
0.00192754
0.00308156
0.00425085
0.00534375
0.00629649
0.00707741
0.00768311
0.00813011
0.00844569
0.00866001
0.00880087
0.00889107
0.00894769
0.00898262
0.00900362
0.00901539
0.00902064
0.00902095
0.00901754
0.00901193
0.00900641
0.00900309
0.00900355
0.00901596
0.00927357
0.00933209
0.00926672
0.0091891
0.00912342
0.00907119
0.00902932
0.00899343
0.00895859
0.00891923
0.00886889
0.00879987
0.00870342
0.00857048
0.00839349
0.0081693
0.00790299
0.00761155
0.007325
0.00708094
0.000128008
0.000896113
0.00193198
0.00308842
0.00425979
0.00535445
0.00630864
0.00709072
0.00769722
0.00814467
0.00846036
0.00867448
0.00881489
0.00890444
0.00896026
0.0089943
0.00901436
0.00902524
0.00902974
0.00902956
0.00902609
0.00902092
0.00901634
0.00901446
0.00901558
0.00903199
0.00930776
0.00936383
0.00930426
0.0092304
0.00916558
0.0091131
0.00907131
0.0090367
0.0090051
0.00897194
0.00893227
0.00888055
0.00881082
0.00871724
0.00859531
0.00844371
0.00826664
0.0080756
0.00788938
0.00772985
0.000128256
0.000898194
0.00193683
0.00309561
0.00426862
0.00536419
0.00631868
0.00710056
0.0077065
0.00815318
0.00846795
0.0086811
0.00882054
0.00890911
0.00896397
0.00899709
0.00901631
0.00902647
0.00903045
0.00903005
0.00902672
0.00902208
0.00901829
0.00901742
0.0090188
0.00904344
0.00933281
0.00938432
0.00932734
0.00925482
0.00918964
0.0091364
0.00909444
0.00906089
0.00903208
0.00900416
0.00897323
0.0089353
0.00888635
0.00882274
0.00874186
0.00864337
0.00853034
0.00841016
0.008294
0.00819397
0.000128496
0.000900425
0.00194194
0.00310305
0.00427747
0.00537352
0.00632767
0.00710861
0.00771326
0.00815847
0.00847176
0.00868352
0.00882169
0.00890912
0.00896298
0.00899522
0.00901369
0.00902329
0.00902693
0.00902648
0.00902341
0.00901931
0.00901618
0.00901599
0.00901748
0.0090597
0.00935495
0.00939994
0.00934275
0.0092696
0.00920307
0.0091486
0.00910619
0.00907334
0.00904672
0.00902291
0.00899873
0.0089712
0.0089376
0.00889564
0.00884391
0.00878242
0.00871328
0.00864093
0.00857161
0.00851135
0.000128728
0.000902743
0.0019472
0.00311062
0.00428636
0.00538266
0.00633616
0.00711579
0.00771876
0.00816215
0.00847369
0.00868385
0.00882061
0.00890686
0.00895972
0.00899114
0.00900898
0.00901813
0.00902157
0.00902119
0.00901844
0.00901484
0.00901225
0.00901252
0.00901404
0.0090892
0.00937764
0.0094137
0.0093541
0.00927899
0.00921048
0.00915448
0.00911136
0.00907886
0.0090538
0.00903304
0.00901382
0.00899379
0.00897103
0.00894409
0.00891217
0.00887543
0.00883517
0.00879387
0.00875458
0.00871972
0.000128952
0.000905103
0.00195251
0.00311825
0.00429525
0.0053917
0.0063444
0.00712256
0.00772367
0.00816509
0.00847475
0.00868324
0.00881859
0.00890366
0.00895557
0.00898625
0.00900355
0.00901237
0.0090157
0.00901544
0.00901303
0.0090099
0.00900775
0.00900832
0.00900981
0.0091333
0.00940065
0.00942603
0.0093629
0.00928526
0.00921454
0.0091569
0.00911293
0.00908048
0.00905645
0.00903784
0.00902211
0.00900729
0.00899192
0.00897501
0.0089561
0.00893534
0.00891343
0.00889155
0.00887085
0.00885152
0.000129165
0.000907473
0.00195782
0.00312587
0.0043041
0.00540067
0.00635252
0.00712914
0.00772834
0.00816776
0.00847552
0.00868234
0.00881629
0.00890023
0.00895126
0.00898128
0.00899812
0.00900669
0.00900997
0.00900988
0.00900781
0.00900511
0.00900332
0.00900408
0.00900557
0.00917855
0.00942118
0.00943626
0.00936964
0.00928957
0.00921676
0.00915754
0.00911264
0.00908003
0.00905662
0.00903946
0.00902611
0.00901481
0.00900432
0.00899392
0.00898331
0.00897254
0.00896194
0.00895186
0.00894227
0.00893211
0.000129368
0.000909829
0.00196309
0.00313342
0.00431287
0.00540954
0.00636054
0.00713563
0.00773293
0.00817037
0.00847627
0.00868146
0.00881407
0.00889695
0.00894716
0.00897659
0.00899304
0.00900142
0.00900471
0.0090048
0.00900305
0.00900073
0.00899925
0.00900013
0.00900157
0.00922299
0.0094383
0.00944414
0.00937464
0.00929258
0.00921798
0.00915731
0.00911151
0.00907859
0.00905551
0.00903928
0.00902752
0.00901852
0.0090112
0.00900493
0.00899948
0.00899482
0.00899102
0.00898792
0.00898478
0.00897984
0.000129562
0.000912158
0.00196829
0.00314085
0.00432151
0.00541829
0.00636846
0.00714206
0.00773751
0.00817302
0.00847712
0.00868075
0.00881208
0.00889396
0.00894343
0.00897233
0.00898846
0.00899669
0.00900001
0.00900028
0.00899884
0.00899687
0.00899565
0.00899662
0.00899804
0.00925655
0.0094508
0.00944976
0.00937827
0.00929475
0.00921867
0.00915673
0.00911007
0.00907679
0.00905382
0.00903817
0.00902744
0.00901994
0.00901464
0.00901095
0.00900865
0.00900766
0.00900787
0.0090088
0.00900934
0.00900729
0.000129746
0.000914452
0.00197339
0.00314816
0.00433001
0.0054269
0.00637627
0.00714842
0.00774209
0.00817575
0.00847813
0.00868027
0.00881039
0.00889134
0.00894013
0.00896856
0.0089844
0.00899252
0.00899589
0.00899634
0.00899518
0.00899352
0.00899253
0.0089936
0.00899512
0.0092741
0.0094588
0.00945371
0.00938105
0.00929645
0.00921914
0.00915608
0.00910862
0.00907494
0.00905197
0.00903666
0.00902659
0.00902006
0.00901603
0.00901394
0.00901355
0.00901475
0.00901728
0.00902052
0.0090231
0.00902261
0.00012992
0.000916705
0.00197838
0.00315531
0.00433833
0.00543534
0.00638395
0.00715472
0.00774668
0.00817856
0.00847929
0.00868002
0.008809
0.00888909
0.00893725
0.00896526
0.00898085
0.00898888
0.0089923
0.00899293
0.00899202
0.00899064
0.00898986
0.008991
0.00899263
0.00928749
0.00946535
0.00945721
0.00938357
0.009298
0.00921958
0.0091555
0.00910731
0.00907323
0.00905018
0.00903507
0.00902542
0.00901951
0.00901628
0.00901518
0.00901595
0.00901843
0.00902231
0.00902685
0.00903055
0.00903088
0.000130084
0.000918917
0.00198327
0.00316229
0.00434645
0.0054436
0.00639148
0.00716093
0.00775125
0.00818144
0.00848059
0.00867999
0.0088079
0.00888718
0.00893476
0.00896239
0.00897777
0.00898572
0.0089892
0.00898998
0.00898931
0.00898818
0.00898758
0.00898877
0.0089905
0.00930046
0.00947219
0.00946107
0.00938623
0.00929961
0.00922009
0.00915507
0.00910619
0.00907174
0.00904858
0.00903357
0.00902419
0.00901868
0.00901597
0.00901548
0.00901695
0.00902019
0.00902485
0.00903011
0.00903442
0.00903518
0.00013024
0.000921082
0.00198803
0.0031691
0.00435438
0.00545166
0.00639885
0.00716703
0.00775579
0.00818436
0.00848203
0.00868015
0.00880706
0.00888558
0.00893263
0.00895991
0.0089751
0.00898299
0.00898652
0.00898746
0.00898699
0.00898608
0.00898563
0.00898686
0.00898869
0.00931283
0.00947929
0.00946536
0.00938912
0.00930135
0.00922074
0.00915481
0.00910531
0.00907051
0.00904723
0.00903227
0.00902307
0.00901782
0.00901543
0.00901532
0.00901721
0.0090209
0.00902601
0.00903168
0.00903631
0.00903727
0.000130387
0.000923198
0.00199267
0.00317572
0.00436208
0.00545951
0.00640605
0.00717302
0.00776029
0.00818732
0.00848357
0.00868049
0.00880645
0.00888427
0.00893081
0.00895778
0.00897279
0.00898063
0.00898421
0.00898528
0.00898501
0.0089843
0.00898398
0.00898523
0.00898719
0.00932318
0.00948616
0.00946983
0.00939219
0.00930321
0.00922153
0.00915475
0.00910468
0.00906957
0.00904618
0.00903124
0.00902214
0.00901706
0.00901487
0.009015
0.00901715
0.0090211
0.00902645
0.00903233
0.00903712
0.00903816
0.000130524
0.000925259
0.00199717
0.00318214
0.00436956
0.00546714
0.00641306
0.00717888
0.00776472
0.00819029
0.00848519
0.00868098
0.00880604
0.0088832
0.00892928
0.00895595
0.0089708
0.0089786
0.00898223
0.00898342
0.00898332
0.00898278
0.00898258
0.00898385
0.00898595
0.00933194
0.00949267
0.00947436
0.00939537
0.0093052
0.00922248
0.00915491
0.00910433
0.00906894
0.00904545
0.00903051
0.00902147
0.00901649
0.00901443
0.00901469
0.00901697
0.00902106
0.00902654
0.00903252
0.00903736
0.00903842
0.000130653
0.000927263
0.00200153
0.00318836
0.0043768
0.00547454
0.00641987
0.0071846
0.00776909
0.00819326
0.00848688
0.00868159
0.00880581
0.00888234
0.008928
0.00895439
0.0089691
0.00897686
0.00898053
0.00898183
0.00898188
0.0089815
0.0089814
0.00898267
0.00898494
0.00933962
0.00949894
0.00947895
0.00939866
0.00930733
0.00922362
0.00915532
0.00910429
0.00906866
0.00904507
0.00903012
0.00902111
0.00901617
0.00901416
0.00901448
0.00901682
0.00902096
0.00902648
0.00903248
0.00903731
0.00903834
0.000130774
0.000929206
0.00200575
0.00319436
0.00438381
0.00548169
0.00642648
0.00719017
0.00777337
0.00819622
0.00848862
0.00868232
0.00880574
0.00888168
0.00892693
0.00895307
0.00896765
0.00897537
0.00897908
0.00898048
0.00898066
0.00898041
0.0089804
0.00898167
0.00898412
0.00934663
0.00950514
0.00948365
0.0094021
0.00930965
0.009225
0.00915603
0.0091046
0.00906878
0.0090451
0.00903011
0.00902109
0.00901614
0.00901413
0.00901443
0.00901677
0.00902089
0.00902639
0.00903234
0.00903711
0.00903807
0.000130886
0.000931086
0.00200981
0.00320016
0.00439056
0.0054886
0.00643287
0.00719558
0.00777756
0.00819915
0.0084904
0.00868313
0.0088058
0.00888118
0.00892606
0.00895196
0.00896641
0.0089741
0.00897784
0.00897933
0.00897963
0.0089795
0.00897957
0.00898082
0.00898349
0.00935324
0.0095114
0.00948853
0.00940574
0.00931221
0.00922668
0.00915712
0.00910534
0.00906934
0.00904557
0.00903053
0.00902145
0.00901644
0.00901436
0.0090146
0.00901686
0.00902091
0.00902631
0.00903217
0.00903683
0.0090377
0.000130989
0.000932899
0.00201372
0.00320572
0.00439705
0.00549526
0.00643904
0.00720082
0.00778165
0.00820205
0.00849221
0.00868403
0.00880598
0.00888084
0.00892536
0.00895103
0.00896537
0.00897302
0.0089768
0.00897837
0.00897878
0.00897875
0.00897888
0.00898012
0.00898303
0.00935964
0.00951784
0.00949367
0.00940967
0.00931509
0.00922876
0.00915867
0.0091066
0.00907044
0.00904657
0.00903143
0.00902224
0.00901711
0.00901489
0.00901499
0.00901711
0.00902103
0.00902629
0.009032
0.00903651
0.00903725
0.000131085
0.000934644
0.00201747
0.00321105
0.00440327
0.00550165
0.006445
0.00720591
0.00778566
0.00820493
0.00849406
0.008685
0.00880627
0.00888063
0.00892481
0.00895028
0.0089645
0.00897212
0.00897593
0.00897757
0.00897808
0.00897815
0.00897834
0.00897954
0.00898274
0.00936602
0.00952459
0.00949915
0.00941394
0.0093184
0.00923135
0.00916081
0.0091085
0.00907219
0.00904819
0.00903289
0.00902352
0.00901818
0.00901575
0.00901564
0.00901756
0.00902127
0.00902633
0.00903183
0.00903615
0.00903673
0.000131173
0.000936311
0.00202102
0.00321611
0.0044092
0.00550777
0.00645072
0.00721084
0.00778958
0.00820779
0.00849593
0.00868604
0.00880666
0.00888056
0.00892441
0.00894967
0.00896379
0.00897138
0.00897521
0.00897692
0.00897752
0.00897768
0.00897791
0.00897909
0.00898261
0.00937257
0.00953176
0.00950501
0.00941863
0.00932222
0.00923457
0.0091637
0.00911119
0.00907474
0.00905054
0.00903501
0.00902535
0.0090197
0.00901697
0.00901656
0.00901819
0.00902163
0.00902643
0.00903167
0.00903575
0.00903615
0.000131252
0.000937879
0.00202435
0.00322086
0.0044148
0.0055136
0.00645625
0.00721566
0.00779345
0.00821066
0.00849786
0.00868718
0.00880717
0.0088806
0.00892414
0.0089492
0.00896322
0.00897078
0.00897464
0.00897642
0.0089771
0.00897733
0.00897761
0.00897875
0.00898265
0.00937947
0.0095394
0.00951126
0.00942375
0.00932663
0.00923858
0.0091675
0.00911487
0.00907824
0.00905378
0.00903789
0.00902781
0.00902173
0.00901857
0.00901777
0.00901903
0.00902212
0.00902658
0.00903151
0.00903531
0.00903549
0.000131322
0.000939302
0.00202738
0.00322524
0.00442006
0.00551919
0.00646163
0.00722042
0.00779735
0.0082136
0.00849989
0.00868842
0.0088078
0.00888077
0.00892399
0.00894886
0.00896278
0.00897031
0.00897419
0.00897603
0.0089768
0.00897711