/*--------------------------------*- C++ -*----------------------------------*\
  =========                 |
  \\      /  F ield         | OpenFOAM: The Open Source CFD Toolbox
   \\    /   O peration     | Website:  https://openfoam.org
    \\  /    A nd           | Version:  7
     \\/     M anipulation  |
\*---------------------------------------------------------------------------*/
FoamFile
{
    version     2.0;
    format      ascii;
    class       volScalarField;
    location    "0.05";
    object      p;
}
// * * * * * * * * * * * * * * * * * * * * * * * * * * * * * * * * * * * * * //

dimensions      [1 -1 -2 0 0 0 0];

internalField   nonuniform List<scalar> 
9072
(
1278.58
1279.12
1276.94
1271.24
1261.65
1248.19
1231.04
1210.37
1186.3
1158.89
1128.1
1093.87
1056.04
1014.41
968.698
918.55
863.508
802.971
736.071
661.728
578.265
483.32
377.662
263.949
151.116
65.8572
25.4517
8.04187
3.90785
3.13882
2.83487
2.69663
2.60115
2.52032
2.45
2.38464
2.32431
2.26953
2.22083
2.17854
2.14304
2.11491
2.09452
2.08195
2.07663
2.07782
1248.77
1248.93
1246.29
1240.27
1230.55
1217.05
1199.89
1179.22
1155.13
1127.66
1096.81
1062.49
1024.55
982.782
936.896
886.535
831.224
770.343
702.976
628.025
543.655
447.416
340.632
225.376
109.482
28.6988
4.62946
2.69663
2.83526
2.77685
2.71796
2.65397
2.57743
2.49904
2.42461
2.35792
2.29724
2.24228
2.19345
2.1511
2.11558
2.08743
2.06692
2.05392
2.04783
2.04792
1219.32
1219.16
1216
1209.54
1199.56
1185.95
1168.74
1148.02
1123.88
1096.35
1065.41
1030.98
992.909
950.972
904.884
854.273
798.646
737.354
669.44
593.788
508.422
411.1
303.89
186.072
69.6208
8.88337
2.21864
2.81971
2.82222
2.71792
2.67196
2.61671
2.54316
2.46699
2.39453
2.32832
2.26774
2.21269
2.1637
2.12116
2.08542
2.05699
2.0361
2.02258
2.01614
2.01606
1190.24
1190.05
1186.62
1179.78
1169.54
1155.76
1138.44
1117.63
1093.41
1065.79
1034.77
1000.24
962.054
919.983
873.737
822.934
767.069
705.478
637.195
561.106
475.253
377.738
270.773
149.225
37.2877
2.41579
2.52002
2.87198
2.77825
2.68761
2.63733
2.57895
2.50705
2.43326
2.3625
2.29677
2.23632
2.18119
2.13197
2.08914
2.05303
2.02413
2.00268
1.98861
1.98218
1.98254
1161.57
1161.46
1157.99
1150.95
1140.5
1126.55
1109.1
1088.18
1063.86
1036.16
1005.06
970.461
932.192
890.036
843.697
792.791
736.808
675.09
606.694
530.552
444.831
348.013
241.962
117.818
18.1543
2.26147
2.89341
2.8683
2.74566
2.66119
2.60466
2.54186
2.47063
2.39843
2.32871
2.26332
2.20302
2.14783
2.09837
2.05519
2.01863
1.98913
1.967
1.95239
1.94611
1.94705
1133.36
1133.35
1129.99
1122.9
1112.33
1098.27
1080.71
1059.69
1035.29
1007.52
976.359
941.71
903.403
861.219
814.863
763.952
707.986
646.328
578.089
502.286
417.279
321.964
217.633
94.0572
11.0825
3.12128
3.00445
2.84534
2.72251
2.63794
2.5725
2.50505
2.43334
2.36184
2.29284
2.22777
2.16758
2.11238
2.06271
2.01917
1.98209
1.95191
1.92905
1.91391
1.90784
1.9093
1105.65
1105.73
1102.56
1095.56
1085
1070.9
1053.28
1032.2
1007.74
979.932
948.747
914.09
875.798
833.652
787.364
736.558
680.755
619.355
551.538
476.448
392.689
299.616
198.043
77.9958
10.0991
3.71121
2.993
2.81747
2.70315
2.61309
2.53936
2.46756
2.39464
2.32324
2.25473
2.18995
2.12986
2.0747
2.02489
1.98096
1.94331
1.91241
1.88883
1.87323
1.86733
1.86919
1078.49
1078.62
1075.69
1068.89
1058.46
1044.42
1026.82
1005.75
981.281
953.474
922.309
887.696
849.478
807.446
761.32
710.736
655.248
594.301
527.162
453.123
371.068
280.831
183.005
67.703
10.2653
3.91559
2.95569
2.79281
2.68218
2.58477
2.50421
2.42849
2.35416
2.28247
2.21426
2.14978
2.08983
2.03475
1.98484
1.94054
1.9023
1.8707
1.84645
1.83041
1.8246
1.82663
1051.88
1052.05
1049.38
1042.88
1032.69
1018.82
1001.34
980.342
955.934
928.186
897.096
862.586
824.512
782.674
736.809
686.57
631.545
571.237
505.008
432.307
352.308
265.295
171.845
61.2374
10.3421
3.9071
2.90836
2.76901
2.65633
2.55217
2.46622
2.38714
2.31144
2.23936
2.17133
2.10719
2.04748
1.99251
1.94253
1.89789
1.8591
1.82686
1.802
1.78549
1.7796
1.78151
1025.82
1026.02
1023.62
1017.5
1007.66
994.082
976.814
955.979
931.705
904.083
873.132
838.791
800.934
759.377
713.872
664.098
609.68
550.183
485.065
413.926
336.216
252.6
163.745
57.3644
10.3133
3.84066
2.85444
2.74069
2.62407
2.51467
2.4247
2.34289
2.26607
2.19369
2.12587
2.06217
2.00278
1.94798
1.89796
1.85305
1.81381
1.781
1.75554
1.73847
1.7323
1.73368
1000.31
1000.53
998.424
992.746
983.358
970.174
953.224
932.642
908.582
881.159
850.414
816.313
778.751
737.559
692.513
643.321
589.644
531.11
467.271
397.857
322.558
242.321
157.893
55.2434
10.2305
3.75698
2.79643
2.7051
2.58465
2.47179
2.37907
2.29529
2.21774
2.14534
2.07786
2.01469
1.95575
1.90119
1.85121
1.80612
1.76652
1.73321
1.70714
1.68932
1.68263
1.68288
975.321
975.58
973.783
968.613
959.772
947.085
930.551
910.312
886.544
859.391
828.922
795.133
757.941
717.199
672.707
624.208
571.395
513.955
451.53
383.949
311.088
234.064
153.593
54.1801
10.1112
3.66117
2.7357
2.66081
2.53777
2.42317
2.32891
2.24405
2.16629
2.09423
2.0273
1.96479
1.90642
1.85221
1.80236
1.7572
1.71735
1.68358
1.65683
1.63798
1.63047
1.62865
950.839
951.164
949.713
945.128
936.93
924.836
908.812
888.998
865.597
838.783
808.659
775.25
738.504
698.296
654.451
606.747
554.913
498.685
437.783
372.106
301.648
227.587
150.447
53.8996
9.92444
3.55035
2.67268
2.60697
2.4833
2.36861
2.27394
2.18895
2.11158
2.04028
1.97416
1.91247
1.85481
1.80109
1.75149
1.70639
1.66637
1.63214
1.60458
1.58434
1.57573
1.57012
926.841
927.309
926.297
922.41
914.97
903.578
888.156
868.848
845.884
819.475
789.761
756.803
720.58
680.992
637.891
591.088
540.349
485.452
426.178
362.466
294.368
223.014
148.526
54.5705
9.7231
3.40443
2.60582
2.54364
2.42131
2.3079
2.21382
2.12964
2.05332
1.98321
1.91821
1.85753
1.80074
1.74768
1.69849
1.65354
1.6134
1.57871
1.55016
1.5281
1.51831
1.50576
903.307
904.021
903.563
900.499
893.933
883.342
868.603
849.869
827.399
801.449
772.201
739.756
704.124
665.234
622.965
577.16
527.62
474.158
416.6
354.899
289.121
220.236
147.539
55.4609
9.2645
3.19133
2.53093
2.47139
2.35246
2.24138
2.14874
2.06625
1.99162
1.92311
1.85953
1.80007
1.74431
1.69206
1.64341
1.59869
1.55843
1.52315
1.49332
1.46887
1.45737
1.4326
880.215
881.173
881.182
878.807
872.987
863.099
848.977
830.771
808.769
783.26
754.468
722.528
687.479
649.28
607.835
563.01
514.643
462.569
406.644
346.823
283.173
216.318
143.973
53.8379
8.26662
2.87443
2.44049
2.38664
2.27782
2.17195
2.08216
2.0023
1.92986
1.86321
1.80119
1.74304
1.68836
1.63694
1.58881
1.54423
1.50361
1.46728
1.43527
1.40696
1.3881
1.34531
1.13404
1.13428
1.13153
1.12581
1.11737
1.10679
1.09471
1.08161
1.06787
1.0538
1.03959
1.02543
1.01144
0.997702
0.984307
0.971311
0.958775
0.946733
0.935237
0.924314
0.913986
0.904274
0.895174
0.886703
0.878841
0.87159
0.864939
0.858875
0.853409
0.848522
0.84424
0.840564
0.837521
0.835151
0.833465
0.832491
0.832143
0.83228
1.10461
1.1045
1.10148
1.09567
1.08733
1.07689
1.06496
1.05199
1.03835
1.02436
1.01022
0.996104
0.982139
0.968431
0.955057
0.942074
0.929549
0.917513
0.906021
0.895101
0.884774
0.875064
0.865964
0.857494
0.849632
0.84238
0.83573
0.829664
0.8242
0.819313
0.815033
0.811361
0.80832
0.805951
0.804248
0.803231
0.802803
0.802855
1.07547
1.07522
1.072
1.06602
1.05767
1.04729
1.03543
1.02252
1.00893
0.994977
0.980857
0.966758
0.952806
0.939106
0.92574
0.912763
0.900241
0.888209
0.876717
0.865798
0.855471
0.845761
0.836661
0.828189
0.820327
0.813073
0.806423
0.800356
0.794889
0.790002
0.785718
0.782046
0.779
0.776621
0.774895
0.773833
0.773355
0.773372
1.04658
1.04634
1.04302
1.03685
1.02842
1.01799
1.00611
0.993205
0.979603
0.965642
0.95151
0.937398
0.923436
0.909727
0.896356
0.883378
0.870856
0.858824
0.847332
0.836413
0.826086
0.816374
0.807272
0.798795
0.79093
0.783673
0.77702
0.770949
0.765477
0.760585
0.756295
0.752616
0.749559
0.747165
0.745414
0.744316
0.743818
0.743828
1.01802
1.01787
1.01453
1.00816
0.999563
0.989006
0.977019
0.964042
0.950373
0.936357
0.922176
0.90802
0.894026
0.880291
0.866904
0.853919
0.841393
0.829361
0.817869
0.80695
0.796622
0.786906
0.777798
0.769315
0.761445
0.75418
0.747521
0.741443
0.735963
0.731063
0.726762
0.723073
0.720002
0.717589
0.715816
0.714692
0.714193
0.714209
0.989836
0.989849
0.986544
0.979964
0.971115
0.960345
0.948164
0.935038
0.921241
0.907118
0.892847
0.878614
0.864561
0.850782
0.837367
0.824368
0.811837
0.799805
0.788313
0.777395
0.767064
0.757342
0.748227
0.739734
0.731854
0.724579
0.717909
0.711821
0.706328
0.701418
0.697104
0.693402
0.690317
0.687887
0.686096
0.68496
0.684475
0.684505
0.962062
0.962319
0.959072
0.952275
0.943093
0.932015
0.919549
0.906192
0.8922
0.877914
0.863509
0.849164
0.835027
0.821185
0.807729
0.794709
0.782171
0.770139
0.758649
0.747731
0.737396
0.727667
0.718541
0.710035
0.702143
0.694854
0.688169
0.682066
0.676559
0.671635
0.667307
0.663592
0.660494
0.658053
0.656256
0.655122
0.654663
0.654708
0.934706
0.935332
0.932144
0.925102
0.9155
0.904014
0.891167
0.877493
0.863238
0.848731
0.834147
0.819656
0.805406
0.791484
0.777976
0.764931
0.752383
0.740352
0.728864
0.717946
0.707607
0.697869
0.688732
0.68021
0.6723
0.664993
0.65829
0.652169
0.646644
0.641705
0.637363
0.633637
0.630532
0.628089
0.626299
0.625182
0.624755
0.624814
0.907761
0.908952
0.905801
0.898461
0.888335
0.876328
0.863001
0.848922
0.834336
0.819551
0.804743
0.790073
0.775685
0.761667
0.748099
0.735023
0.722464
0.710433
0.698947
0.688029
0.677687
0.66794
0.658789
0.650249
0.642319
0.63499
0.628263
0.622122
0.616577
0.611623
0.607268
0.603535
0.600431
0.597997
0.596229
0.595143
0.594752
0.594822
0.881187
0.88326
0.880106
0.872376
0.8616
0.848945
0.835031
0.820456
0.805469
0.790351
0.775279
0.7604
0.745854
0.731726
0.718089
0.704977
0.692404
0.680371
0.668889
0.657973
0.647628
0.637872
0.628707
0.620147
0.612193
0.604838
0.598086
0.591922
0.586355
0.581385
0.57702
0.573286
0.570193
0.567781
0.56605
0.565009
0.564655
0.564734
0.854951
0.858367
0.855144
0.846881
0.835302
0.821851
0.807234
0.79207
0.776612
0.76111
0.745737
0.730625
0.715901
0.701651
0.687938
0.674785
0.662195
0.65016
0.638682
0.627769
0.617424
0.60766
0.598481
0.589898
0.581918
0.574535
0.567755
0.561566
0.555977
0.550992
0.54662
0.542891
0.539818
0.537443
0.535765
0.534782
0.534467
0.534554
0.829168
0.834452
0.831037
0.822026
0.809452
0.795033
0.779585
0.763736
0.747738
0.731805
0.716099
0.700733
0.685818
0.671436
0.657639
0.64444
0.63183
0.619793
0.60832
0.597413
0.58707
0.577299
0.568106
0.559502
0.551494
0.544082
0.537272
0.531056
0.525445
0.520445
0.516069
0.512351
0.509309
0.506985
0.505376
0.504463
0.504192
0.504286
0.803803
0.811857
0.808
0.797874
0.784064
0.768478
0.752062
0.735429
0.71882
0.702413
0.686343
0.670706
0.65559
0.641067
0.62718
0.613931
0.601299
0.58926
0.577794
0.566895
0.556556
0.546782
0.537577
0.528951
0.520916
0.513474
0.506632
0.500389
0.494754
0.48974
0.485364
0.481662
0.478661
0.476402
0.47488
0.474053
0.473834
0.473936
0.77697
0.791401
0.786556
0.774553
0.759181
0.742196
0.724649
0.707123
0.689829
0.672899
0.656438
0.64051
0.625182
0.610511
0.596527
0.583222
0.570566
0.558523
0.547065
0.536177
0.525845
0.51607
0.506855
0.49821
0.49015
0.482678
0.475806
0.469535
0.463877
0.458849
0.454474
0.450794
0.447844
0.445666
0.444254
0.44354
0.443391
0.443507
0.746443
0.774956
0.767806
0.752324
0.734848
0.716194
0.697339
0.678805
0.660752
0.643256
0.626373
0.610138
0.594589
0.579762
0.565674
0.552308
0.539622
0.527573
0.516122
0.505245
0.494922
0.48515
0.475929
0.467269
0.459186
0.451687
0.444785
0.438487
0.432806
0.427765
0.423392
0.419738
0.416849
0.414769
0.413491
0.412919
0.412866
0.413002
0.725999
0.764692
0.752415
0.731258
0.71085
0.690298
0.670044
0.650466
0.631642
0.613584
0.59629
0.579759
0.564
0.549028
0.534844
0.52142
0.508707
0.496653
0.48521
0.474345
0.464034
0.454267
0.445043
0.436372
0.428269
0.420745
0.413815
0.407488
0.401782
0.396722
0.392346
0.388708
0.385865
0.383865
0.382696
0.382242
0.382267
0.382418
844.765
845.884
846.053
843.944
838.503
829.077
815.453
797.751
776.251
751.259
723.025
691.714
657.399
620.072
579.667
536.081
489.189
438.857
384.967
327.492
266.536
201.781
128.629
44.8321
6.22991
2.40294
2.27549
2.23685
2.1562
2.06679
1.98532
1.91106
1.8425
1.77868
1.71886
1.66249
1.60922
1.55881
1.51122
1.46653
1.42485
1.38598
1.34902
1.31157
1.26478
1.15525
798.112
799.22
799.174
796.776
791.156
781.748
768.338
751.005
729.99
705.579
678.02
647.493
614.09
577.832
538.684
496.576
451.421
403.126
351.615
296.906
239.093
177.481
107.626
33.1357
4.07828
2.09466
2.06889
2.04983
1.99513
1.92673
1.85863
1.79325
1.73079
1.67133
1.61477
1.56094
1.50963
1.46067
1.41395
1.3694
1.32689
1.28598
1.24536
1.20216
1.15208
1.09259
753.127
754.208
754.073
751.56
745.914
736.652
723.575
706.74
686.358
662.69
635.981
606.416
574.107
539.098
501.382
460.922
417.666
371.559
322.567
270.751
216.231
158.304
93.0918
26.614
3.50071
1.98819
1.91021
1.88539
1.84192
1.78571
1.72759
1.67008
1.61373
1.55904
1.50629
1.45555
1.40676
1.35984
1.31468
1.27115
1.22911
1.18814
1.14733
1.10513
1.06038
1.01149
709.868
710.903
710.738
708.24
702.72
693.745
681.131
664.921
645.3
622.512
596.795
568.339
537.269
503.649
467.499
428.812
387.567
343.743
297.346
248.478
197.298
143.141
82.509
22.4911
3.22875
1.8769
1.76267
1.73365
1.69508
1.64561
1.59445
1.54335
1.49257
1.44261
1.39386
1.34651
1.30063
1.25619
1.2131
1.17129
1.13062
1.09078
1.05113
1.01067
0.968311
0.921486
668.38
669.353
669.162
666.711
661.365
652.729
640.63
625.098
606.3
584.463
559.817
532.553
502.803
470.65
436.135
399.276
360.078
318.55
274.733
228.768
180.845
130.327
73.9192
19.3025
2.92935
1.74558
1.6177
1.58783
1.5518
1.50681
1.46108
1.4154
1.36961
1.32412
1.27931
1.23542
1.19258
1.15081
1.11008
1.07036
1.03156
0.993456
0.955601
0.917309
0.878021
0.836259
628.683
629.592
629.38
626.993
621.844
613.569
602.004
587.172
569.223
548.371
524.836
498.806
470.422
439.775
406.926
371.911
334.758
295.5
254.205
211.045
166.231
119.128
66.5296
16.6019
2.58081
1.59732
1.47273
1.44422
1.41004
1.36887
1.32787
1.28697
1.24573
1.20442
1.16339
1.12289
1.08308
1.04403
1.00577
0.968299
0.931585
0.895478
0.859658
0.823718
0.787614
0.750396
590.768
591.616
591.393
589.089
584.154
576.252
565.228
551.1
534.008
514.153
491.746
466.971
439.97
410.845
379.666
346.487
311.353
274.314
235.46
194.982
153.097
109.143
59.948
14.223
2.20717
1.43171
1.32552
1.30038
1.26847
1.2313
1.19484
1.15838
1.12134
1.08395
1.04651
1.00927
0.972406
0.936046
0.900258
0.865081
0.830509
0.796446
0.762669
0.728957
0.695552
0.661711
554.606
555.399
555.175
552.966
548.257
540.734
530.251
516.824
500.586
481.725
460.444
436.924
411.306
383.697
354.176
322.807
289.646
254.76
218.25
180.316
141.169
100.097
53.9639
12.1242
1.84317
1.25041
1.17455
1.15515
1.12661
1.09403
1.06213
1.0299
0.996822
0.963103
0.929045
0.894903
0.860886
0.827148
0.793786
0.760865
0.728401
0.696339
0.664525
0.632851
0.601702
0.570449
520.154
520.896
520.68
518.575
514.099
506.955
497.008
484.273
468.875
450.997
430.831
408.552
384.302
358.188
330.295
300.694
269.45
236.637
202.363
166.833
130.238
91.8078
48.4677
10.2762
1.50637
1.06136
1.02062
1.00901
0.984987
0.957448
0.930095
0.901891
0.872506
0.842215
0.81133
0.780123
0.748824
0.717611
0.686599
0.655864
0.625443
0.595312
0.565363
0.535562
0.506369
0.477235
487.357
488.053
487.849
485.854
481.612
474.843
465.423
453.366
438.794
421.88
402.808
381.747
358.836
334.184
307.878
279.991
250.596
219.769
187.622
154.356
120.141
84.146
43.3956
8.66179
1.21166
0.876942
0.86722
0.86389
0.844912
0.822339
0.799232
0.774717
0.748711
0.721571
0.693631
0.665178
0.636455
0.607652
0.578893
0.550261
0.521809
0.493535
0.465369
0.437322
0.409899
0.382614
456.152
456.806
456.616
454.732
450.72
444.321
435.416
424.023
410.256
394.282
376.278
356.405
334.799
311.567
286.796
260.564
232.943
204.012
173.882
142.749
110.76
77.034
38.7228
7.26152
0.963986
0.708751
0.719304
0.722416
0.707895
0.689562
0.670064
0.648745
0.625721
0.601407
0.576154
0.55025
0.523942
0.497415
0.470796
0.444174
0.417616
0.391136
0.364692
0.338327
0.312571
0.286995
426.473
427.085
426.91
425.134
421.349
415.31
406.909
396.162
383.18
368.122
351.156
332.436
312.095
290.236
266.946
242.302
216.38
189.257
161.041
131.922
102.028
70.4375
34.4453
6.04894
0.761015
0.565429
0.581501
0.586833
0.575094
0.55977
0.543003
0.524268
0.503763
0.481913
0.459059
0.435477
0.411399
0.387
0.362399
0.337691
0.312951
0.28821
0.263442
0.238717
0.214568
0.190622
398.248
398.82
398.658
396.988
393.424
387.739
379.828
369.712
357.494
343.325
327.365
309.763
290.644
270.109
248.244
225.127
200.831
175.433
149.038
121.83
93.9193
64.3537
30.5811
5.03506
0.594919
0.439852
0.453424
0.457404
0.446728
0.433128
0.418208
0.401434
0.382979
0.363223
0.342471
0.32097
0.298928
0.2765
0.253791
0.2309
0.207906
0.184849
0.161715
0.138588
0.116002
0.0936249
371.407
371.941
371.792
370.225
366.879
361.538
354.108
344.605
333.13
319.824
304.838
288.315
270.375
251.117
230.624
208.974
186.238
162.49
137.833
112.445
86.4196
58.7831
27.1336
4.18993
0.449169
0.324797
0.332563
0.333157
0.322237
0.309352
0.295555
0.280209
0.263385
0.245384
0.226454
0.206803
0.186608
0.165996
0.145061
0.123893
0.102575
0.0811454
0.0595987
0.0380267
0.0169573
-0.00391068
345.885
346.381
346.245
344.781
341.648
336.645
329.682
320.775
310.019
297.548
283.503
268.021
251.218
233.19
214.019
193.78
172.541
150.374
127.377
103.725
79.493
53.6946
24.0673
3.47187
0.318692
0.217546
0.216786
0.212684
0.200669
0.18786
0.174693
0.160382
0.144862
0.128338
0.110992
0.0929885
0.0744706
0.0555392
0.0362689
0.0167397
-0.00296944
-0.022824
-0.0428253
-0.0628819
-0.0824832
-0.101905
321.614
322.076
321.954
320.59
317.665
312.99
306.48
298.15
288.089
276.421
263.283
248.804
233.097
216.254
198.357
179.474
159.672
139.016
117.602
95.5985
73.0699
49.0231
21.3311
2.86591
0.193298
0.108113
0.10155
0.0937826
0.0807679
0.0678711
0.0551258
0.0416254
0.0271894
0.0119378
-0.00400622
-0.0205231
-0.037501
-0.0548644
-0.07256
-0.0905223
-0.10868
-0.127004
-0.145495
-0.164068
-0.182245
-0.20028
298.528
298.957
298.85
297.585
294.861
290.503
284.429
276.654
267.26
256.366
244.102
230.59
215.939
200.238
183.565
165.986
147.558
128.341
108.43
87.9879
67.0721
44.696
18.8652
2.34221
0.0659681
-0.00775394
-0.0156475
-0.0250137
-0.0384601
-0.0512896
-0.0636131
-0.0763898
-0.0898638
-0.103974
-0.118646
-0.133796
-0.149339
-0.165223
-0.181419
-0.197877
-0.214537
-0.231369
-0.24838
-0.265498
-0.282286
-0.29898
276.558
276.956
276.864
275.692
273.162
269.108
263.453
256.211
247.459
237.312
225.89
213.313
199.681
185.08
169.583
153.251
136.135
118.29
99.8035
80.84
61.4518
40.6707
16.6284
1.87358
-0.0617512
-0.126249
-0.134029
-0.143976
-0.157444
-0.170002
-0.181832
-0.193892
-0.206455
-0.219498
-0.23298
-0.246847
-0.261037
-0.275517
-0.29028
-0.305296
-0.320514
-0.335901
-0.351468
-0.36716
-0.382588
-0.397975
255.636
256.004
255.922
254.84
252.495
248.732
243.481
236.753
228.623
219.197
208.591
196.918
184.271
170.728
156.357
141.216
125.353
108.815
91.6888
74.134
56.2003
36.9428
14.6098
1.45293
-0.188436
-0.244995
-0.252794
-0.263058
-0.276308
-0.288437
-0.299689
-0.311003
-0.322663
-0.334669
-0.34701
-0.359652
-0.372551
-0.385692
-0.399084
-0.412718
-0.426551
-0.44055
-0.454723
-0.469032
-0.483133
-0.49724
235.695
236.032
235.96
234.962
232.795
229.313
224.452
218.222
210.694
201.967
192.152
181.353
169.655
157.128
143.834
129.829
115.161
99.8757
84.0561
67.854
51.3119
33.5087
12.8005
1.07765
-0.313999
-0.363879
-0.371872
-0.382287
-0.395144
-0.40672
-0.41731
-0.427831
-0.438567
-0.44954
-0.460757
-0.472206
-0.483857
-0.495706
-0.507776
-0.520076
-0.532577
-0.545244
-0.558082
-0.571059
-0.583874
-0.596733
216.673
216.98
216.917
216
214.004
210.794
206.309
200.562
193.617
185.567
176.514
166.556
155.771
144.219
131.953
119.032
105.506
91.4237
76.8629
61.9625
46.7515
30.334
11.1713
0.740135
-0.439211
-0.48351
-0.491481
-0.501801
-0.514105
-0.525014
-0.534858
-0.544525
-0.554303
-0.564225
-0.574313
-0.584575
-0.594996
-0.60558
-0.616358
-0.627355
-0.638556
-0.649931
-0.66148
-0.673175
-0.684747
-0.696392
198.509
198.788
198.734
197.895
196.064
193.116
188.995
183.712
177.33
169.933
161.613
152.461
142.552
131.935
120.658
108.777
96.3463
83.4179
70.0637
56.4066
42.4617
27.3653
9.68415
0.430074
-0.564586
-0.603966
-0.611701
-0.621713
-0.633334
-0.643471
-0.652484
-0.661233
-0.670005
-0.678841
-0.687779
-0.696843
-0.706033
-0.715361
-0.724862
-0.73457
-0.744486
-0.754588
-0.764874
-0.775319
-0.785682
-0.796143
181.144
181.397
181.353
180.588
178.915
176.217
172.445
167.61
161.771
155.003
147.387
139.008
129.937
120.221
109.9
99.0254
87.6518
75.83
63.6252
51.1467
38.4029
24.5718
8.3209
0.143364
-0.690107
-0.725124
-0.732513
-0.742062
-0.752889
-0.762156
-0.770253
-0.778014
-0.785721
-0.79343
-0.801185
-0.809028
-0.816978
-0.82505
-0.833282
-0.841713
-0.850353
-0.859192
-0.868229
-0.877442
-0.886615
-0.895911
164.519
164.746
164.709
164.015
162.492
160.036
156.6
152.196
146.88
140.719
133.782
126.145
117.879
109.028
99.6326
89.7362
79.3862
68.6272
57.5174
46.1591
34.5626
21.9513
7.08161
-0.119466
-0.81549
-0.846859
-0.85388
-0.862862
-0.87279
-0.881098
-0.888197
-0.894893
-0.901469
-0.907993
-0.914524
-0.921116
-0.927802
-0.934606
-0.941565
-0.948724
-0.956101
-0.963689
-0.971489
-0.979482
-0.987478
-0.995621
148.573
148.775
148.744
148.117
146.739
144.517
141.407
137.42
132.606
127.028
120.746
113.825
106.332
98.3141
89.8099
80.858
71.4957
61.7582
51.6989
41.4177
30.9292
19.4987
5.95946
-0.360864
-0.940865
-0.969218
-0.975866
-0.984205
-0.993158
-1.00043
-1.00644
-1.01199
-1.01735
-1.02261
-1.02785
-1.03314
-1.03852
-1.04402
-1.04968
-1.05555
-1.06166
-1.06801
-1.07458
-1.08136
-1.08819
-1.09519
133.249
133.427
133.403
132.842
131.605
129.609
126.815
123.23
118.899
113.881
108.232
102.006
95.2621
88.0464
80.397
72.349
63.9323
55.1761
46.1317
36.8962
27.4819
17.1924
4.93438
-0.587104
-1.06675
-1.09236
-1.09861
-1.10625
-1.11418
-1.12033
-1.12517
-1.12947
-1.13352
-1.13742
-1.14127
-1.14518
-1.14917
-1.15331
-1.15762
-1.16218
-1.167
-1.17208
-1.17742
-1.183
-1.18866
-1.19453
118.494
118.651
118.635
118.14
117.04
115.263
112.774
109.577
105.713
101.235
96.1968
90.6475
84.6345
78.1969
71.3693
64.1858
56.674
48.8625
40.8016
32.5807
24.2041
15.0162
3.99622
-0.80051
-1.19318
-1.21634
-1.22221
-1.22911
-1.23594
-1.24088
-1.24444
-1.24739
-1.25001
-1.25243
-1.2548
-1.25722
-1.25975
-1.26245
-1.26537
-1.26857
-1.27207
-1.27587
-1.27996
-1.28432
-1.28883
-1.29357
104.256
104.396
104.39
103.96
102.994
101.427
99.2327
96.4123
93.0005
89.0468
84.5996
79.7056
74.4027
68.7207
62.6888
56.3397
49.7022
42.8063
35.6985
28.4565
21.0804
12.9637
3.14763
-0.998969
-1.3198
-1.34115
-1.34671
-1.35283
-1.35848
-1.36209
-1.36424
-1.36569
-1.36676
-1.3676
-1.36837
-1.3692
-1.37019
-1.37139
-1.37286
-1.37466
-1.37681
-1.3793
-1.38213
-1.38527
-1.38862
-1.39224
90.4851
90.6107
90.6184
90.2552
89.4194
88.0551
86.1431
83.6873
80.7144
77.2695
73.3966
69.1361
64.5187
59.5668
54.3067
48.7693
42.9839
36.9782
30.7919
24.4926
18.0857
11.0214
2.38442
-1.18371
-1.44681
-1.46703
-1.47234
-1.47765
-1.482
-1.48413
-1.48468
-1.48445
-1.4838
-1.48291
-1.48196
-1.4811
-1.48045
-1.48006
-1.48002
-1.48037
-1.48114
-1.48231
-1.48386
-1.48577
-1.48797
-1.49048
77.0969
77.2205
77.2596
76.9782
76.2773
75.108
73.4618
71.355
68.8097
65.8607
62.5471
58.9013
54.9468
50.7009
46.1893
41.4424
36.4865
31.3436
26.0458
20.6578
15.1973
9.17426
1.69968
-1.35797
-1.57475
-1.59433
-1.59947
-1.60391
-1.60684
-1.60726
-1.60596
-1.60379
-1.60119
-1.59837
-1.59555
-1.59287
-1.59047
-1.58841
-1.58679
-1.58565
-1.585
-1.58482
-1.58508
-1.58578
-1.58683
-1.58825
63.9793
64.1449
64.2463
64.073
63.5225
62.5494
61.156
59.3742
57.2377
54.773
52.0069
48.9614
45.6522
42.0938
38.3107
34.3322
30.1799
25.8703
21.4329
16.9337
12.4038
7.41937
1.1009
-1.52009
-1.70341
-1.72331
-1.72843
-1.73194
-1.73325
-1.73166
-1.7282
-1.72378
-1.71895
-1.71397
-1.70909
-1.70446
-1.70019
-1.69638
-1.69311
-1.69042
-1.68832
-1.68677
-1.68575
-1.68523
-1.68516
-1.6855
51.2467
51.4309
51.5384
51.4404
51.0363
50.257
49.1135
47.6479
45.9038
43.9089
41.6782
39.221
36.5433
33.6567
30.5834
27.3491
23.9721
20.4686
16.8711
13.246
9.64023
5.71587
0.584241
-1.66797
-1.83245
-1.85438
-1.85976
-1.86217
-1.86148
-1.85751
-1.85147
-1.84444
-1.83706
-1.82967
-1.82252
-1.81577
-1.80953
-1.80388
-1.7989
-1.79463
-1.79104
-1.78811
-1.7858
-1.78408
-1.78289
-1.78219
38.9889
39.0291
39.0319
38.8881
38.5633
37.9533
37.0485
35.9011
34.5551
33.0312
31.3325
29.4553
27.3969
25.1646
22.7773
20.2576
17.6243
14.8998
12.1222
9.35761
6.68138
3.88356
0.0691592
-1.80915
-1.96214
-1.98856
-1.99468
-1.99555
-1.99211
-1.98504
-1.97584
-1.96574
-1.95544
-1.94535
-1.93571
-1.92669
-1.91836
-1.9108
-1.90408
-1.89818
-1.8931
-1.88879
-1.8852
-1.88228
-1.88001
-1.87829
25.7329
25.8484
26.0709
26.0438
25.7927
25.3273
24.6505
23.825
22.8934
21.8597
20.7064
19.4135
17.9696
16.3766
14.6502
12.8131
10.8899
8.9131
6.92641
5.00294
3.26092
1.65851
-0.62491
-1.96461
-2.09132
-2.12665
-2.13504
-2.13354
-2.12593
-2.11459
-2.10137
-2.08756
-2.0739
-2.06081
-2.04848
-2.03704
-2.02653
-2.01701
-2.0085
-2.00098
-1.99441
-1.98873
-1.98388
-1.9798
-1.97646
-1.97375
11.4532
12.4327
13.0748
13.3988
13.2534
12.8626
12.3739
11.8767
11.3991
10.9096
10.3554
9.69096
8.89164
7.95307
6.88954
5.7283
4.50349
3.25811
2.04348
0.950813
0.143526
-0.301165
-1.15353
-2.18043
-2.2252
-2.27009
-2.28353
-2.27785
-2.26362
-2.24629
-2.22791
-2.20965
-2.19216
-2.17576
-2.16056
-2.14659
-2.13385
-2.12234
-2.11204
-2.10291
-2.09486
-2.08784
-2.08177
-2.07657
-2.07221
-2.06855
4.04894
6.46827
5.95641
5.46336
4.70774
3.9622
3.4533
3.23399
3.24564
3.3691
3.48787
3.51728
3.41326
3.16584
2.79157
2.32486
1.80816
1.29054
0.829088
0.530116
0.673496
1.37424
0.343528
-2.52211
-2.41543
-2.43107
-2.44306
-2.42952
-2.40539
-2.37979
-2.35496
-2.33151
-2.30978
-2.28983
-2.27162
-2.25507
-2.24009
-2.22661
-2.21455
-2.20383
-2.19436
-2.18606
-2.17881
-2.17253
-2.16719
-2.16263
6.26619
9.21787
7.48147
6.12468
4.59786
3.33693
2.61918
2.44549
2.67624
3.11242
3.6009
4.03911
4.37725
4.60458
4.7362
4.80098
4.83057
4.85851
4.92241
5.09386
5.69934
6.98681
4.73907
-2.85313
-2.7861
-2.63337
-2.61641
-2.58768
-2.54985
-2.51379
-2.48141
-2.45227
-2.42605
-2.40248
-2.38126
-2.36217
-2.345
-2.32961
-2.31586
-2.30362
-2.2928
-2.28328
-2.27492
-2.26761
-2.26135
-2.25594
-4.26767
-3.08217
-2.87956
-2.57985
-2.50802
-2.49413
-2.44351
-2.32928
-2.16825
-1.99581
-1.84345
-1.7292
-1.65735
-1.62398
-1.62049
-1.63662
-1.66321
-1.69302
-1.71852
-1.7249
-1.62862
-1.3006
-0.968069
-3.07918
-3.12309
-2.86209
-2.79938
-2.74633
-2.69252
-2.64556
-2.60547
-2.57068
-2.54013
-2.51309
-2.48904
-2.46755
-2.44833
-2.43114
-2.4158
-2.40216
-2.39007
-2.37941
-2.37001
-2.36176
-2.35463
-2.34842
-4.24127
-4.13661
-4.21926
-4.29759
-4.36469
-4.39465
-4.39697
-4.38378
-4.36178
-4.33492
-4.30583
-4.27607
-4.24622
-4.21636
-4.18621
-4.15549
-4.12415
-4.09247
-4.06143
-4.03568
-4.01227
-3.94682
-3.64083
-3.4443
-3.29325
-3.09355
-2.98052
-2.89652
-2.82789
-2.77171
-2.72506
-2.68541
-2.6511
-2.62104
-2.59448
-2.57087
-2.5498
-2.531
-2.51422
-2.4993
-2.48607
-2.47437
-2.46403
-2.45489
-2.44697
-2.44002
-4.25606
-4.24526
-4.26233
-4.27671
-4.28975
-4.29577
-4.29425
-4.28672
-4.27439
-4.25813
-4.23872
-4.2167
-4.19235
-4.16582
-4.1372
-4.10652
-4.0738
-4.03902
-4.00188
-3.96212
-3.91765
-3.85727
-3.7496
-3.60734
-3.41341
-3.23962
-3.11777
-3.02457
-2.94987
-2.88894
-2.83828
-2.79529
-2.75819
-2.72579
-2.69721
-2.67183
-2.6492
-2.629
-2.61098
-2.59494
-2.5807
-2.56808
-2.55688
-2.54695
-2.5383
-2.53068
-4.26648
-4.26257
-4.27495
-4.28513
-4.29645
-4.30372
-4.30436
-4.2985
-4.28705
-4.27111
-4.25165
-4.22928
-4.20432
-4.17693
-4.14724
-4.11521
-4.08068
-4.04328
-4.00204
-3.95466
-3.89709
-3.82382
-3.72954
-3.60923
-3.46298
-3.32889
-3.22069
-3.13192
-3.05822
-2.99659
-2.94446
-2.89977
-2.861
-2.82701
-2.79696
-2.77022
-2.74635
-2.72502
-2.70596
-2.68898
-2.67388
-2.66046
-2.64851
-2.63788
-2.62858
-2.62036
-4.27822
-4.27875
-4.28531
-4.29285
-4.30073
-4.30543
-4.30482
-4.29848
-4.2869
-4.27101
-4.25159
-4.22909
-4.20377
-4.17585
-4.14542
-4.11241
-4.07652
-4.03726
-3.99369
-3.94368
-3.88373
-3.80999
-3.72102
-3.61877
-3.50736
-3.40062
-3.30683
-3.22567
-3.15584
-3.0958
-3.04397
-2.99892
-2.95944
-2.92459
-2.89361
-2.86593
-2.84115
-2.81895
-2.79908
-2.78135
-2.76554
-2.75145
-2.73886
-2.72762
-2.71777
-2.70902
-4.29165
-4.29309
-4.29685
-4.30123
-4.30506
-4.30629
-4.30343
-4.29594
-4.28407
-4.26836
-4.2492
-4.22687
-4.20159
-4.17357
-4.14292
-4.10946
-4.07284
-4.03255
-3.9879
-3.93753
-3.87931
-3.81111
-3.7323
-3.64559
-3.55447
-3.46552
-3.3837
-3.31027
-3.24523
-3.18795
-3.13755
-3.09309
-3.05368
-3.01856
-2.98713
-2.95891
-2.93354
-2.91074
-2.8903
-2.87199
-2.85563
-2.84101
-2.8279
-2.81616
-2.80583
-2.79661
-4.30481
-4.30671
-4.30955
-4.31237
-4.31406
-4.31325
-4.30893
-4.30072
-4.28874
-4.27322
-4.25433
-4.23224
-4.2072
-4.17943
-4.14898
-4.11561
-4.0789
-4.03845
-3.99376
-3.94407
-3.88829
-3.82547
-3.75569
-3.68068
-3.60307
-3.52671
-3.45468
-3.38838
-3.3283
-3.27432
-3.226
-3.18276
-3.14398
-3.10909
-3.07762
-3.0492
-3.02354
-3.00041
-2.97959
-2.9609
-2.94414
-2.92911
-2.9156
-2.90345
-2.89273
-2.88311
-4.31896
-4.32097
-4.32346
-4.32557
-4.32622
-4.32438
-4.31934
-4.31088
-4.29898
-4.28365
-4.26499
-4.2432
-4.21857
-4.19129
-4.16134
-4.12845
-4.09223
-4.05235
-4.00852
-3.96038
-3.90745
-3.84943
-3.78669
-3.7205
-3.65275
-3.58587
-3.52183
-3.46184
-3.40651
-3.35598
-3.31008
-3.26845
-3.23068
-3.19638
-3.16522
-3.1369
-3.11121
-3.08796
-3.06697
-3.04806
-3.03106
-3.01576
-3.00196
-2.9895
-2.97845
-2.9685
-4.33454
-4.33649
-4.33871
-4.34025
-4.34018
-4.33769
-4.33231
-4.32378
-4.31194
-4.29675
-4.27834
-4.25698
-4.2329
-4.20626
-4.17699
-4.14482
-4.10949
-4.07077
-4.02852
-3.98262
-3.93293
-3.87947
-3.82265
-3.76347
-3.70334
-3.64387
-3.58641
-3.53192
-3.48098
-3.43384
-3.39046
-3.35064
-3.31414
-3.2807
-3.2501
-3.22213
-3.19664
-3.17347
-3.15249
-3.13352
-3.11641
-3.10096
-3.08697
-3.07429
-3.063
-3.05277
-4.35178
-4.35359
-4.3555
-4.35654
-4.3559
-4.353
-4.34741
-4.3388
-4.32696
-4.3119
-4.29382