/*--------------------------------*- C++ -*----------------------------------*\
  =========                 |
  \\      /  F ield         | OpenFOAM: The Open Source CFD Toolbox
   \\    /   O peration     | Website:  https://openfoam.org
    \\  /    A nd           | Version:  7
     \\/     M anipulation  |
\*---------------------------------------------------------------------------*/
FoamFile
{
    version     2.0;
    format      ascii;
    class       volScalarField;
    location    "0.05";
    object      p_rgh;
}
// * * * * * * * * * * * * * * * * * * * * * * * * * * * * * * * * * * * * * //

dimensions      [1 -1 -2 0 0 0 0];

internalField   nonuniform List<scalar> 
9072
(
1293.29
1293.83
1291.66
1285.96
1276.36
1262.9
1245.75
1225.09
1201.02
1173.6
1142.82
1108.58
1070.76
1029.13
983.413
933.265
878.222
817.686
750.786
676.443
592.98
498.034
392.376
278.663
165.811
80.188
36.3373
10.6496
4.19161
3.23846
2.87394
2.71776
2.61744
2.5354
2.46479
2.39937
2.33903
2.28425
2.23554
2.19325
2.15775
2.12962
2.10924
2.09666
2.09135
2.09254
1292.92
1293.07
1290.44
1284.42
1274.69
1261.19
1244.04
1223.36
1199.27
1171.81
1140.96
1106.64
1068.7
1026.93
981.04
930.679
875.368
814.487
747.12
672.169
587.799
491.56
384.776
269.52
153.217
64.1726
17.9838
4.20223
3.22949
2.96727
2.80711
2.70828
2.62387
2.54371
2.46887
2.40209
2.34139
2.28643
2.2376
2.19525
2.15972
2.13157
2.11106
2.09806
2.09197
2.09206
1292.89
1292.73
1289.58
1283.11
1273.13
1259.52
1242.32
1221.6
1197.45
1169.92
1138.98
1104.56
1066.48
1024.55
978.457
927.846
872.219
810.928
743.014
667.362
581.995
484.674
377.464
259.645
139.183
47.7805
6.8444
3.4732
3.08888
2.86161
2.76689
2.69587
2.61804
2.54085
2.46817
2.4019
2.34132
2.28627
2.23727
2.19473
2.15899
2.13056
2.10967
2.09615
2.08972
2.08963
1293.24
1293.05
1289.62
1282.79
1272.54
1258.76
1241.44
1220.63
1196.41
1168.8
1137.77
1103.24
1065.06
1022.99
976.739
925.937
870.072
808.481
740.198
664.109
578.255
480.741
373.775
252.228
122.192
27.7546
3.81778
3.29047
2.97126
2.81747
2.74798
2.68395
2.61053
2.53636
2.46552
2.39977
2.33932
2.2842
2.23498
2.19214
2.15603
2.12713
2.10568
2.09161
2.08518
2.08555
1294
1293.89
1290.42
1283.39
1272.93
1258.98
1241.53
1220.61
1196.29
1168.6
1137.5
1102.89
1064.62
1022.47
976.13
925.223
869.24
807.522
739.126
662.984
577.263
480.445
374.394
250.25
102.061
12.8799
3.73041
3.17192
2.92114
2.80477
2.73993
2.67498
2.60322
2.5309
2.46115
2.39576
2.33545
2.28026
2.2308
2.18762
2.15106
2.12157
2.09943
2.08482
2.07854
2.07948
1295.22
1295.21
1291.85
1284.76
1274.2
1260.13
1242.57
1221.55
1197.15
1169.38
1138.22
1103.57
1065.26
1023.08
976.725
925.813
869.848
808.19
739.95
664.147
579.14
483.826
379.494
253.399
82.6927
6.43771
3.63421
3.11244
2.90799
2.80517
2.73557
2.66718
2.59526
2.52371
2.4547
2.38963
2.32944
2.27424
2.22457
2.18103
2.14395
2.11377
2.09091
2.07578
2.0697
2.07117
1296.94
1297.02
1293.85
1286.85
1276.29
1262.19
1244.57
1223.49
1199.03
1171.22
1140.04
1105.38
1067.09
1024.94
978.655
927.849
872.046
810.646
742.829
667.739
583.98
490.907
389.334
256.932
67.7865
5.41714
3.51439
3.07833
2.90868
2.80727
2.73123
2.65897
2.58596
2.51453
2.44602
2.38124
2.32115
2.26599
2.21618
2.17225
2.1346
2.1037
2.08012
2.06452
2.05862
2.06048
1299.21
1299.34
1296.41
1289.61
1279.18
1265.14
1247.54
1226.47
1202
1174.19
1143.03
1108.42
1070.2
1028.17
982.04
931.456
875.968
815.021
747.882
673.843
591.788
501.551
403.725
263.42
56.8361
5.28958
3.41664
3.06127
2.91196
2.80716
2.72523
2.64926
2.57489
2.5032
2.43498
2.3705
2.31055
2.25547
2.20556
2.16126
2.12302
2.09142
2.06717
2.05113
2.04532
2.04735
1302.02
1302.2
1299.53
1293.03
1282.84
1268.97
1251.49
1230.49
1206.08
1178.34
1147.25
1112.74
1074.66
1032.82
986.959
936.719
881.694
821.387
755.157
682.456
602.457
515.444
421.994
272.05
49.1693
5.07894
3.34139
3.05341
2.91254
2.80335
2.71654
2.63732
2.5616
2.48951
2.42148
2.35734
2.29763
2.24266
2.19268
2.14804
2.10925
2.07701
2.05215
2.03564
2.02975
2.03166
1305.4
1305.6
1303.2
1297.08
1287.24
1273.66
1256.39
1235.56
1211.28
1183.66
1152.71
1118.37
1080.51
1038.96
993.451
943.677
889.259
829.762
764.644
693.504
615.795
532.179
443.324
283.37
44.4469
4.89872
3.28089
3.04619
2.90794
2.79492
2.70439
2.62248
2.54565
2.47327
2.40545
2.34174
2.28236
2.22756
2.17754
2.13263
2.09339
2.06058
2.03512
2.01805
2.01188
2.01326
1309.32
1309.54
1307.43
1301.75
1292.37
1279.18
1262.23
1241.65
1217.59
1190.17
1159.42
1125.32
1087.76
1046.57
1001.52
952.33
898.653
840.118
776.28
706.865
631.566
551.329
466.902
298.105
42.501
4.7635
3.23081
3.03498
2.89691
2.78127
2.68815
2.60431
2.52675
2.45435
2.38686
2.3237
2.26476
2.2102
2.16021
2.11513
2.07553
2.04221
2.01615
1.99833
1.99163
1.99189
1313.76
1314.02
1312.22
1307.05
1298.21
1285.52
1268.99
1248.75
1224.98
1197.83
1167.36
1133.57
1096.38
1055.64
1011.15
962.645
909.833
852.393
789.968
722.387
649.525
572.501
492.031
316.153
43.1607
4.66214
3.18816
3.01721
2.87885
2.76197
2.6674
2.58249
2.50473
2.43267
2.36573
2.30323
2.24486
2.19065
2.14079
2.09564
2.05579
2.02201
1.99527
1.97642
1.96891
1.96708
1318.71
1319.03
1317.58
1313
1304.8
1292.7
1276.68
1256.87
1233.46
1206.65
1176.53
1143.12
1106.37
1066.16
1022.32
974.614
922.78
866.552
805.65
739.973
669.515
595.454
518.314
337.463
45.4238
4.58384
3.15082
2.99139
2.85348
2.73678
2.64185
2.55682
2.47945
2.40814
2.34203
2.28034
2.22268
2.16896
2.11936
2.07426
2.03423
2.00001
1.97245
1.9522
1.9436
1.93799
1324.14
1324.61
1323.59
1319.71
1312.27
1300.87
1285.45
1266.14
1243.18
1216.77
1187.06
1154.1
1117.88
1078.29
1035.19
988.384
937.645
882.748
823.474
759.762
691.665
620.31
545.822
369.656
54.594
4.51434
3.117
2.95726
2.82079
2.70547
2.61115
2.52694
2.45062
2.38051
2.31551
2.25483
2.19803
2.14497
2.09578
2.05084
2.0107
1.976
1.94746
1.9254
1.91561
1.90306
1330.03
1330.75
1330.29
1327.22
1320.66
1310.07
1295.33
1276.59
1254.13
1228.17
1198.93
1166.48
1130.85
1091.96
1049.69
1003.89
954.346
900.884
843.325
781.625
715.846
646.962
574.265
408.134
67.6771
4.40175
3.07939
2.91515
2.78142
2.66838
2.57549
2.49298
2.41834
2.34984
2.28626
2.22679
2.17103
2.11879
2.07013
2.02542
1.98515
1.94987
1.92004
1.89559
1.88409
1.85932
1336.37
1337.33
1337.34
1334.96
1329.14
1319.25
1305.13
1286.93
1264.92
1239.42
1210.62
1178.68
1143.63
1105.44
1063.99
1019.17
970.798
918.724
862.799
802.978
739.329
672.473
600.128
441.404
78.0485
4.18318
3.027
2.86099
2.73638
2.6284
2.53835
2.45846
2.38602
2.31937
2.25734
2.19919
2.14451
2.09309
2.04496
2.00039
1.95977
1.92344
1.89143
1.86312
1.84425
1.80147
1.14876
1.149
1.14624
1.14053
1.13208
1.12151
1.10943
1.09632
1.08259
1.06851
1.05431
1.04015
1.02615
1.01242
0.999022
0.986025
0.973489
0.961448
0.949952
0.939028
0.9287
0.918988
0.909889
0.901418
0.893556
0.886305
0.879654
0.87359
0.868124
0.863237
0.858954
0.855279
0.852235
0.849866
0.84818
0.847206
0.846858
0.846995
1.14876
1.14865
1.14563
1.13981
1.13147
1.12104
1.10911
1.09614
1.0825
1.06851
1.05436
1.04025
1.02628
1.01257
0.999201
0.986218
0.973693
0.961657
0.950165
0.939245
0.928918
0.919208
0.910108
0.901638
0.893776
0.886524
0.879874
0.873808
0.868344
0.863457
0.859177
0.855505
0.852464
0.850095
0.848392
0.847375
0.846947
0.846999
1.14904
1.14879
1.14557
1.13959
1.13125
1.12086
1.109
1.0961
1.0825
1.06855
1.05443
1.04033
1.02638
1.01268
0.999313
0.986336
0.973815
0.961782
0.950291
0.939371
0.929044
0.919335
0.910235
0.901763
0.8939
0.886647
0.879996
0.873929
0.868463
0.863575
0.859291
0.855619
0.852573
0.850195
0.848469
0.847406
0.846928
0.846945
1.14958
1.14935
1.14603
1.13986
1.13143
1.121
1.10912
1.09621
1.08261
1.06864
1.05451
1.0404
1.02644
1.01273
0.999359
0.986381
0.973859
0.961826
0.950334
0.939415
0.929088
0.919377
0.910274
0.901798
0.893933
0.886676
0.880022
0.873951
0.86848
0.863588
0.859297
0.855619
0.852562
0.850168
0.848417
0.847319
0.84682
0.846831
1.15045
1.1503
1.14697
1.14059
1.13199
1.12144
1.10945
1.09647
1.08281
1.06879
1.05461
1.04045
1.02646
1.01272
0.999336
0.986351
0.973825
0.961793
0.950301
0.939382
0.929054
0.919338
0.91023
0.901747
0.893877
0.886613
0.879953
0.873875
0.868395
0.863495
0.859194
0.855505
0.852434
0.850021
0.848248
0.847124
0.846625
0.846641
1.1517
1.15171
1.14841
1.14183
1.13298
1.12221
1.11003
1.0969
1.0831
1.06898
1.05471
1.04048
1.02642
1.01264
0.999228
0.986229
0.973698
0.961666
0.950175
0.939256
0.928925
0.919204
0.910088
0.901595
0.893715
0.886441
0.879771
0.873682
0.86819
0.86328
0.858966
0.855263
0.852178
0.849748
0.847958
0.846821
0.846337
0.846366
1.15335
1.15361
1.15036
1.14357
1.13438
1.12331
1.11084
1.09748
1.08349
1.0692
1.0548
1.04046
1.02632
1.01248
0.999019
0.986
0.973462
0.96143
0.94994
0.939022
0.928687
0.918958
0.909832
0.901326
0.893434
0.886145
0.87946
0.873357
0.86785
0.862926
0.858598
0.854882
0.851785
0.849344
0.847547
0.846412
0.845954
0.845998
1.15543
1.15605
1.15286
1.14582
1.13622
1.12473
1.11189
1.09821
1.08396
1.06945
1.05487
1.04038
1.02613
1.0122
0.998696
0.985651
0.973103
0.961072
0.949584
0.938666
0.928327
0.918589
0.909452
0.90093
0.893021
0.885714
0.87901
0.872889
0.867364
0.862425
0.858083
0.854357
0.851252
0.848809
0.847019
0.845902
0.845475
0.845534
1.15791
1.1591
1.15595
1.14861
1.13848
1.12648
1.11315
1.09907
1.08449
1.0697
1.05489
1.04022
1.02583
1.01182
0.998249
0.985173
0.972614
0.960582
0.949097
0.938179
0.927837
0.918089
0.908939
0.900399
0.892469
0.885139
0.878413
0.872272
0.866726
0.861772
0.857418
0.853684
0.850581
0.848147
0.846378
0.845293
0.844901
0.844972
1.16077
1.16284
1.15968
1.15195
1.14118
1.12852
1.11461
1.10003
1.08505
1.06993
1.05486
1.03998
1.02543
1.0113
0.997668
0.984556
0.971983
0.95995
0.948468
0.937552
0.927207
0.917451
0.908286
0.899726
0.891772
0.884417
0.877664
0.871501
0.865934
0.860964
0.856599
0.852865
0.849772
0.84736
0.845629
0.844588
0.844234
0.844313
1.16396
1.16738
1.16415
1.15589
1.14431
1.13086
1.11624
1.10108
1.08562
1.07012
1.05475
1.03963
1.02491
1.01066
0.996947
0.983793
0.971203
0.959168
0.94769
0.936777
0.926432
0.916668
0.907489
0.898907
0.890927
0.883544
0.876763
0.870575
0.864986
0.86
0.855629
0.851899
0.848826
0.846452
0.844774
0.84379
0.843475
0.843563
1.16761
1.17289
1.16947
1.16046
1.14789
1.13347
1.11802
1.10217
1.08618
1.07024
1.05454
1.03917
1.02426
1.00987
0.996077
0.982878
0.970268
0.958231
0.946757
0.935851
0.925507
0.915737
0.906544
0.897939
0.889932
0.88252
0.875709
0.869494
0.863882
0.858882
0.854507
0.850788
0.847747
0.845423
0.843814
0.842901
0.84263
0.842724
1.17167
1.17972
1.17587
1.16574
1.15193
1.13635
1.11993
1.1033
1.08669
1.07028
1.05421
1.03857
1.02346
1.00893
0.995047
0.981798
0.969166
0.957127
0.945661
0.934762
0.924423
0.914649
0.905444
0.896818
0.888783
0.881341
0.874499
0.868256
0.862621
0.857607
0.853231
0.849529
0.846528
0.844269
0.842747
0.84192
0.841701
0.841803
1.17427
1.1887
1.18385
1.17185
1.15648
1.13949
1.12195
1.10442
1.08713
1.0702
1.05373
1.03781
1.02248
1.00781
0.993824
0.980519
0.967863
0.95582
0.944361
0.933473
0.923141
0.913366
0.904151
0.895507
0.887446
0.879975
0.873102
0.866831
0.861173
0.856145
0.85177
0.84809
0.84514
0.842963
0.84155
0.840837
0.840688
0.840803
1.17317
1.20168
1.19453
1.17905
1.16157
1.14292
1.12406
1.10553
1.08748
1.06998
1.0531
1.03686
1.02131
1.00649
0.9924
0.979033
0.966348
0.954299
0.942848
0.931971
0.921648
0.911876
0.902655
0.893995
0.885912
0.878413
0.871511
0.865213
0.859532
0.854491
0.850118
0.846464
0.843574
0.841495
0.840216
0.839645
0.839592
0.839727
1.18215
1.22085
1.20857
1.18741
1.16701
1.14645
1.1262
1.10662
1.0878
1.06974
1.05245
1.03591
1.02016
1.00518
0.990999
0.977575
0.964862
0.952808
0.941365
0.9305
0.920189
0.910422
0.901198
0.892527
0.884424
0.8769
0.86997
0.863643
0.857937
0.852877
0.848501
0.844863
0.84202
0.84002
0.838851
0.838397
0.838422
0.838573
1346.93
1348.05
1348.22
1346.11
1340.67
1331.25
1317.62
1299.92
1278.42
1253.43
1225.19
1193.88
1159.57
1122.24
1081.84
1038.25
991.358
941.025
887.135
829.66
768.704
703.95
630.798
476.63
86.1615
3.83931
2.91334
2.75808
2.66096
2.56929
2.48753
2.41323
2.34467
2.28085
2.22103
2.16466
2.11139
2.06098
2.01339
1.9687
1.92702
1.88815
1.85119
1.81374
1.76695
1.65742
1362.88
1363.99
1363.94
1361.54
1355.92
1346.51
1333.1
1315.77
1294.76
1270.34
1242.79
1212.26
1178.86
1142.6
1103.45
1061.34
1016.19
967.892
916.381
861.671
803.859
742.247
672.392
510.325
84.0219
3.55748
2.75662
2.63138
2.56217
2.4918
2.42344
2.35802
2.29555
2.23609
2.17954
2.1257
2.07439
2.02544
1.97872
1.93417
1.89166
1.85074
1.81012
1.76692
1.71685
1.65736
1380.49
1381.57
1381.44
1378.92
1373.28
1364.02
1350.94
1334.1
1313.72
1290.05
1263.34
1233.78
1201.47
1166.46
1128.74
1088.28
1045.03
998.922
949.93
898.114
843.594
785.667
720.455
537.531
75.519
3.42473
2.64169
2.52625
2.47105
2.4133
2.35499
2.29745
2.2411
2.18641
2.13365
2.08291
2.03413
1.98721
1.94204
1.89851
1.85647
1.8155
1.7747
1.73249
1.68774
1.63886
1399.83
1400.86
1400.7
1398.2
1392.68
1383.71
1371.09
1354.88
1335.26
1312.47
1286.76
1258.3
1227.23
1193.61
1157.46
1118.77
1077.53
1033.7
987.306
938.439
887.258
833.101
772.469
559.673
64.8483
3.25496
2.53699
2.43392
2.38633
2.33573
2.28443
2.23332
2.18253
2.13257
2.08382
2.03647
1.99059
1.94615
1.90306
1.86125
1.82058
1.78074
1.74109
1.70063
1.65827
1.61145
1420.94
1421.91
1421.72
1419.27
1413.92
1405.29
1393.19
1377.66
1358.86
1337.02
1312.37
1285.11
1255.36
1223.21
1188.69
1151.83
1112.64
1071.11
1027.29
981.325
933.402
882.885
826.477
575.411
53.3944
3.06095
2.43551
2.34791
2.30524
2.25948
2.21365
2.16795
2.12217
2.07667
2.03186
1.98798
1.94514
1.90337
1.86264
1.82292
1.78411
1.74601
1.70816
1.66987
1.63058
1.58882
1443.84
1444.75
1444.53
1442.15
1437
1428.72
1417.16
1402.33
1384.38
1363.53
1339.99
1313.96
1285.58
1254.93
1222.08
1187.07
1149.91
1110.65
1069.36
1026.2
981.385
934.283
881.684
585.459
42.4394
2.8587
2.33644
2.26462
2.22578
2.18409
2.14303
2.10213
2.06088
2.01957
1.97854
1.93805
1.89823
1.85918
1.82092
1.78345
1.74674
1.71063
1.67481
1.63887
1.60277
1.56555
1468.52
1469.37
1469.15
1466.84
1461.91
1454
1442.98
1428.85
1411.76
1391.91
1369.5
1344.72
1317.72
1288.6
1257.42
1224.24
1189.1
1152.07
1113.21
1072.73
1030.85
986.895
937.7
590.715
32.6035
2.65607
2.23847
2.18168
2.14659
2.10909
2.07259
2.03613
1.9991
1.9617
1.92426
1.88702
1.85016
1.8138
1.77801
1.74283
1.70826
1.6742
1.64042
1.60671
1.5733
1.53946
1494.96
1495.75
1495.52
1493.32
1488.61
1481.08
1470.6
1457.17
1440.93
1422.07
1400.79
1377.27
1351.66
1324.05
1294.53
1263.16
1230
1195.11
1158.6
1120.67
1081.52
1040.45
994.313
591.619
24.4872
2.45833
2.14017
2.09788
2.06719
2.0344
2.00248
1.97025
1.93717
1.90345
1.86939
1.83525
1.80124
1.7675
1.73414
1.70121
1.66875
1.63669
1.60487
1.5732
1.54205
1.5108
1523.1
1523.84
1523.63
1521.52
1517.05
1509.9
1499.95
1487.22
1471.82
1453.94
1433.78
1411.5
1387.25
1361.13
1333.24
1303.64
1272.4
1239.58
1205.31
1169.78
1133.18
1094.75
1051.41
589.123
17.7375
2.27087
2.04174
2.01355
1.98808
1.96041
1.93304
1.90484
1.87545
1.84516
1.81428
1.78307
1.75177
1.72056
1.68955
1.65881
1.62839
1.59826
1.56831
1.53851
1.50932
1.48018
1552.9
1553.6
1553.39
1551.4
1547.16
1540.39
1530.97
1518.91
1504.34
1487.42
1468.35
1447.29
1424.38
1399.73
1373.42
1345.54
1316.14
1285.31
1253.17
1219.9
1185.68
1149.69
1108.94
583.477
12.5065
2.10399
1.94605
1.93052
1.91055
1.88789
1.86478
1.84026
1.81425
1.78711
1.75917
1.73072
1.702
1.6732
1.64444
1.61581
1.58735
1.55908
1.53091
1.50287
1.47544
1.44816
1584.29
1584.95
1584.76
1582.87
1578.86
1572.46
1563.56
1552.16
1538.4
1522.42
1504.42
1484.55
1462.94
1439.71
1414.94
1388.7
1361.08
1332.15
1302.02
1270.89
1238.9
1205.18
1166.86
575.182
8.67803
1.96488
1.85734
1.85131
1.8361
1.81771
1.79821
1.77689
1.75386
1.72955
1.70429
1.67839
1.65208
1.62556
1.59894
1.57232
1.54576
1.51928
1.49283
1.46647
1.44071
1.41514
1617.21
1617.82
1617.65
1615.87
1612.09
1606.05
1597.65
1586.9
1573.92
1558.86
1541.89
1523.17
1502.83
1480.97
1457.68
1433.04
1407.12
1380
1351.78
1322.66
1292.77
1261.18
1225.18
564.655
5.87047
1.85795
1.77966
1.7781
1.76587
1.75051
1.73374
1.71501
1.6945
1.67265
1.6498
1.62622
1.60214
1.57774
1.55314
1.52843
1.50369
1.47895
1.45418
1.42945
1.40531
1.38136
1651.58
1652.16
1651.99
1650.32
1646.76
1641.07
1633.16
1623.05
1610.83
1596.66
1580.7
1563.1
1543.98
1523.44
1501.58
1478.46
1454.17
1428.77
1402.37
1375.17
1347.25
1317.69
1283.92
551.933
4.35857
1.77468
1.71236
1.71112
1.70009
1.68647
1.67154
1.65477
1.63631
1.61656
1.59581
1.57431
1.55226
1.52984
1.50713
1.48424
1.46124
1.43819
1.41505
1.39192
1.36934
1.34696
1687.34
1687.87
1687.72
1686.16
1682.81
1677.47
1670.04
1660.54
1649.06
1635.76
1620.77
1604.25
1586.31
1567.05
1546.56
1524.91
1502.17
1478.42
1453.77
1428.38
1402.35
1374.72
1343.07
537.91
3.25243
1.70622
1.6527
1.64936
1.63819
1.62529
1.61149
1.59614
1.57932
1.56132
1.54239
1.52274
1.50254
1.48193
1.46099
1.43983
1.41851
1.39708
1.37553
1.35396
1.33289
1.31202
1724.41
1724.91
1724.78
1723.31
1720.18
1715.17
1708.21
1699.31
1688.55
1676.08
1662.03
1646.55
1629.75
1611.72
1592.55
1572.31
1551.07
1528.9
1505.91
1482.25
1458.02
1432.22
1402.6
522.681
2.59732
1.64847
1.59844
1.5914
1.57921
1.56639
1.55322
1.53891
1.52339
1.50687
1.48952
1.47152
1.453
1.43407
1.4148
1.39527
1.37556
1.35571
1.3357
1.31565
1.29605
1.27663
1762.74
1763.2
1763.08
1761.72
1758.79
1754.12
1747.61
1739.28
1729.22
1717.55
1704.41
1689.93
1674.22
1657.38
1639.48
1620.6
1600.8
1580.14
1558.73
1536.73
1514.2
1490.15
1462.46
506.321
2.38715
1.59026
1.54496
1.53504
1.5219
1.509
1.49625
1.48275
1.46832
1.45307
1.43712
1.4206
1.40363
1.38626
1.36857
1.35061
1.33245
1.31412
1.29563
1.27706
1.25888
1.24085
1802.25
1802.68
1802.58
1801.31
1798.59
1794.23
1788.15
1780.38
1770.98
1760.09
1747.83
1734.31
1719.66
1703.96
1687.29
1669.71
1651.28
1632.07
1612.15
1591.71
1570.8
1548.42
1522.59
489.098
2.1958
1.52787
1.48974
1.4788
1.46527
1.45244
1.44011
1.42733
1.41386
1.39975
1.38508
1.36993
1.35439
1.3385
1.32231
1.30585
1.28919
1.27236
1.25534
1.23823
1.22144
1.20474
1842.88
1843.28
1843.19
1842.01
1839.48
1835.43
1829.77
1822.53
1813.78
1803.63
1792.21
1779.63
1766
1751.4
1735.9
1719.57
1702.46
1684.61
1666.13
1647.16
1627.77
1606.99
1582.95
471.225
1.99629
1.46471
1.43349
1.4224
1.40888
1.39632
1.38449
1.37243
1.35987
1.34682
1.33334
1.31947
1.30529
1.2908
1.27604
1.26103
1.24581
1.23042
1.21485
1.19916
1.18373
1.16835
1884.56
1884.92
1884.84
1883.76
1881.41
1877.65
1872.4
1865.67
1857.54
1848.12
1837.51
1825.84
1813.19
1799.65
1785.28
1770.14
1754.27
1737.73
1720.61
1703.05
1685.12
1665.86
1643.53
452.802
1.80455
1.4028
1.37698
1.3659
1.35261
1.34048
1.32923
1.31792
1.30626
1.29425
1.28191
1.26927
1.25637
1.24323
1.22984
1.2162
1.20237
1.18837
1.1742
1.15989
1.14579
1.13168
1927.21
1927.55
1927.48
1926.48
1924.31
1920.83
1915.97
1909.74
1902.21
1893.48
1883.67
1872.87
1861.17
1848.64
1835.35
1821.35
1806.68
1791.39
1775.57
1759.37
1742.83
1725.03
1704.32
433.849
1.65713
1.34197
1.32024
1.30925
1.29637
1.2848
1.27421
1.26369
1.25295
1.24198
1.23076
1.21931
1.20766
1.19581
1.18374
1.17144
1.15894
1.14627
1.13343
1.12046
1.10764
1.09478
1970.79
1971.09
1971.03
1970.11
1968.12
1964.91
1960.42
1954.68
1947.73
1939.68
1930.63
1920.67
1909.88
1898.33
1886.07
1873.15
1859.62
1845.54
1830.98
1816.08
1800.87
1784.45
1765.29
414.383
1.53273
1.28136
1.26305
1.25233
1.24001
1.2291
1.21926
1.20959
1.19981
1.18989
1.1798
1.16954
1.15912
1.14853
1.13776
1.12676
1.11556
1.10418
1.09263
1.08094
1.06937
1.05772
2015.22
2015.5
2015.45
2014.61
2012.78
2009.83
2005.71
2000.42
1994.04
1986.64
1978.32
1969.17
1959.26
1948.65
1937.37
1925.49
1913.06
1900.13
1886.77
1873.12
1859.17
1844.08
1826.4
394.42
1.42193
1.22072
1.20529
1.19501
1.18338
1.17324
1.16423
1.15548
1.14671
1.13787
1.12893
1.11987
1.11068
1.10135
1.09185
1.08214
1.07223
1.06212
1.05184
1.04139
1.03103
1.02057
2060.45
2060.71
2060.66
2059.9
2058.22
2055.53
2051.75
2046.92
2041.08
2034.31
2026.7
2018.32
2009.25
1999.53
1989.21
1978.33
1966.96
1955.14
1942.93
1930.45
1917.71
1903.88
1887.63
373.969
1.32065
1.16001
1.14698
1.13725
1.12642
1.11715
1.10906
1.10129
1.09359
1.08588
1.07812
1.07028
1.06233
1.05426
1.04603
1.0376
1.02896
1.02012
1.01108
1.00187
0.992693
0.983397
2106.42
2106.65
2106.61
2105.92
2104.4
2101.94
2098.51
2094.1
2088.79
2082.62
2075.69
2068.05
2059.78
2050.93
2041.54
2031.64
2021.29
2010.53
1999.42
1988.06
1976.47
1963.86
1948.99
353.033
1.22692
1.09923
1.08815
1.07905
1.06912
1.06081
1.05371
1.04701
1.04044
1.03391
1.02738
1.02079
1.0141
1.0073
1.00034
0.993181
0.985804
0.978216
0.970416
0.962423
0.954428
0.946285
2153.08
2153.28
2153.25
2152.62
2151.24
2149.02
2145.91
2141.92
2137.11
2131.53
2125.25
2118.33
2110.83
2102.82
2094.31
2085.36
2076
2066.26
2056.2
2045.92
2035.43
2024
2010.46
331.616
1.13916
1.03823
1.02871
1.0203
1.01135
1.00408
0.998059
0.992512
0.987151
0.981889
0.976648
0.971362
0.965985
0.960487
0.954824
0.948949
0.942838
0.936496
0.929925
0.923143
0.916314
0.909314
2200.35
2200.53
2200.5
2199.94
2198.71
2196.71
2193.92
2190.33
2186
2180.98
2175.33
2169.11
2162.36
2155.15
2147.5
2139.45
2131.03
2122.28
2113.23
2104
2094.58
2084.29
2072.03
309.723
1.05582
0.976759
0.968534
0.960846
0.952923
0.946774
0.941928
0.937625
0.93358
0.929681
0.925826
0.921925
0.917927
0.913795
0.909478
0.904922
0.900099
0.895015
0.889677
0.884103
0.878436
0.872571
2248.19
2248.35
2248.33
2247.84
2246.74
2244.96
2242.47
2239.27
2235.41
2230.93
2225.89
2220.34
2214.33
2207.89
2201.07
2193.88
2186.37
2178.56
2170.5
2162.28
2153.9
2144.71
2133.69
287.348
0.976041
0.914703
0.907518
0.90059
0.893756
0.88882
0.885254
0.882308
0.879687
0.877263
0.8749
0.872482
0.869944
0.867244
0.864325
0.86113
0.857628
0.853826
0.849736
0.845376
0.840868
0.836131
2296.55
2296.69
2296.68
2296.25
2295.29
2293.72
2291.53
2288.71
2285.3
2281.34
2276.89
2272
2266.7
2261.02
2254.98
2248.63
2242
2235.1
2227.99
2220.75
2213.37
2205.26
2195.44
264.478
0.899571
0.852001
0.8456
0.839461
0.833811
0.830204
0.828053
0.826601
0.82553
0.824692
0.823926
0.823092
0.822102
0.820903
0.819435
0.817639
0.815488
0.812993
0.810166
0.807026
0.803676
0.800059
2345.38
2345.5
2345.51
2345.15
2344.31
2342.95
2341.03
2338.58
2335.61
2332.16
2328.29
2324.03
2319.41
2314.46
2309.2
2303.66
2297.88
2291.87
2285.68
2279.38
2272.98
2265.91
2257.28
241.103
0.825665
0.788385
0.782554
0.777241
0.772887
0.770766
0.770212
0.77044
0.771091
0.771979
0.772932
0.77379
0.774447
0.774831
0.774875
0.774522
0.773754
0.772586
0.771035
0.769117
0.76692
0.764412
2394.59
2394.71
2394.75
2394.47
2393.77
2392.6
2390.95
2388.84
2386.3
2383.35
2380.04
2376.39
2372.44
2368.19
2363.68
2358.93
2353.98
2348.83
2343.53
2338.15
2332.69
2326.66
2319.19
217.246
0.753322
0.723451
0.718017
0.71358
0.710649
0.710231
0.711532
0.713695
0.716302
0.719115
0.721939
0.724614
0.727024
0.729078
0.730703
0.731844
0.732494
0.732674
0.732405
0.731709
0.730655
0.729239
2444.06
2444.23
2444.33
2444.16
2443.61
2442.64
2441.24
2439.46
2437.32
2434.86
2432.09
2429.05
2425.74
2422.18
2418.4
2414.42
2410.27
2405.96
2401.52
2397.02
2392.49
2387.51
2381.19
193.015
0.682327
0.656929
0.651654
0.648148
0.646838
0.648424
0.65189
0.656302
0.66114
0.666112
0.670995
0.675629
0.679898
0.683708
0.686979
0.689667
0.691771
0.693319
0.694338
0.694856
0.69493
0.694584
2493.9
2494.09
2494.21
2494.12
2493.72
2492.94
2491.8
2490.33
2488.59
2486.59
2484.36
2481.9
2479.23
2476.34
2473.27
2470.03
2466.65
2463.15
2459.55
2455.93
2452.32
2448.4
2443.27
168.425
0.612645
0.588368
0.582926
0.580509
0.581204
0.585177
0.591215
0.59824
0.605626
0.613016
0.620165
0.626915
0.633158
0.638803
0.64378
0.648056
0.651643
0.654573
0.656883
0.658605
0.65979
0.66049
2544.09
2544.19
2544.24
2544.13
2543.82
2543.22
2542.32
2541.17
2539.83
2538.3
2536.6
2534.73
2532.67
2530.43
2528.05
2525.53
2522.89
2520.17
2517.39
2514.62
2511.94
2509.15
2505.33
142.604
0.543612
0.516741
0.510598
0.509729
0.513167
0.520243
0.529441
0.539544
0.549843
0.559933
0.569566
0.578595
0.586923
0.594476
0.601204
0.607097
0.61218
0.616493
0.620084
0.622998
0.625273
0.626994
2592.67
2593.06
2593.53
2593.66
2593.5
2593.08
2592.43
2591.62
2590.69
2589.66
2588.51
2587.21
2585.77
2584.17
2582.44
2580.6
2578.67
2576.68
2574.69
2572.76
2571.01
2569.4
2567.11
114.889
0.476029
0.44123
0.432842
0.43434
0.441953
0.45329
0.466513
0.480323
0.493975
0.507069
0.519394
0.530842
0.541348
0.550865
0.559375
0.566897
0.573471
0.579152
0.584002
0.588079
0.591416
0.594126
2636.98
2639.22
2641.08
2642.21
2642.55
2642.44
2642.11
2641.7
2641.27
2640.8
2640.24
2639.56
2638.74
2637.78
2636.69
2635.49
2634.23
2632.94
2631.69
2630.55
2629.7
2629.21
2628.3
93.1876
0.404148
0.360382
0.346941
0.352627
0.366856
0.384189
0.40257
0.420826
0.438311
0.454712
0.469915
0.483888
0.496626
0.508132
0.518431
0.52757
0.535613
0.542631
0.548703
0.553906
0.558267
0.561925
2652.1
2678.13
2684.35
2687.92
2689.78
2690.62
2691.05
2691.35
2691.63
2691.85
2691.96
2691.91
2691.68
2691.27
2690.71
2690.03
2689.29
2688.53
2687.81
2687.25
2687.13
2687.57
2686.12
87.2792
0.276272
0.262004
0.250012
0.263549
0.287687
0.313286
0.338116
0.361558
0.383298
0.403246
0.421452
0.438004
0.452983
0.466464
0.478523
0.489243
0.49871
0.507015
0.514262
0.520543
0.525881
0.530441
1435.92
1679.51
1893.24
2067.31
2190.76
2270.14
2318.26
2345.2
2358.14
2361.89
2359.63
2353.38
2344.43
2333.56
2321.28
2307.88
2293.5
2278.33
2262.5
2245.91
2229.59
2210.68
2174.44
84.6354
-0.0312551
0.122298
0.139258
0.167994
0.205815
0.241876
0.274264
0.303401
0.329617
0.353192
0.374405
0.3935
0.410666
0.42606
0.439813
0.452045
0.462867
0.472394
0.480753
0.488056
0.494317
0.499729
3.53993
61.408
133.281
214.972
290.583
351.24
393.48
419.127
431.86
435.408
432.781
426.145
416.967
406.173
394.343
381.866
369.098
356.239
343.225
329.969
317.242
300.288
339.475
29.7021
-0.304827
-0.0438231
0.0188834
0.071938
0.12575
0.172706
0.212801
0.247589
0.27814
0.305175
0.329232
0.350719
0.36994
0.387127
0.402467
0.41611
0.428193
0.438857
0.448253
0.45651
0.463635
0.469844
-1.36041
-1.25575
-1.33839
-1.41673
-1.48382
-1.51379
-1.5161
-1.50291
-1.48091
-1.45405
-1.42496
-1.3952
-1.36536
-1.33549
-1.30534
-1.27462
-1.24329
-1.2116
-1.18057
-1.15481
-1.1314
-1.06596
-0.759964
-0.563434
-0.412381
-0.21269
-0.0996597
-0.0156561
0.052979
0.10915
0.1558
0.195455
0.229768
0.259825
0.286386
0.309999
0.331062
0.349868
0.366642
0.381563
0.394792
0.406492
0.416839
0.425975
0.433897
0.440843
-1.3126
-1.30179
-1.31887
-1.33325
-1.34629
-1.35231
-1.35079
-1.34326
-1.33093
-1.31467
-1.29526
-1.27324
-1.24889
-1.22236
-1.19373
-1.16305
-1.13034
-1.09555
-1.05842
-1.01865
-0.974188
-0.913811
-0.806138
-0.663879
-0.469946
-0.296163
-0.174304
-0.0811086
-0.00640921
0.0545204
0.105181
0.148175
0.185267
0.217672
0.246254
0.271633
0.29426
0.31446
0.332481
0.34852
0.36276
0.375383
0.386584
0.396514
0.40516
0.412777
-1.26042
-1.25651
-1.26889
-1.27908
-1.29039
-1.29766
-1.2983
-1.29244
-1.28099
-1.26505
-1.24559
-1.22322
-1.19826
-1.17087
-1.14118
-1.10915
-1.07462
-1.03722
-0.995986
-0.948603
-0.891036
-0.817765
-0.723482
-0.603175
-0.456924
-0.322831
-0.214629
-0.125862
-0.0521655
0.0094671
0.0616025
0.106288
0.145057
0.179047
0.2091
0.235835
0.259706
0.281043
0.300097
0.317077
0.33218
0.345603
0.357551
0.368183
0.377474
0.385696
-1.20956
-1.21009
-1.21665
-1.22419
-1.23208
-1.23678
-1.23617
-1.22982
-1.21824
-1.20236
-1.18294
-1.16044
-1.13512
-1.10719
-1.07677
-1.04376
-1.00786
-0.968604
-0.925032
-0.875024
-0.81507
-0.741335
-0.652363
-0.550115
-0.438699
-0.331959
-0.238172
-0.157017
-0.0871789
-0.0271393
0.0246862
0.069737
0.109211
0.144067
0.175051
0.202726
0.22751
0.24971
0.269572
0.287307
0.303118
0.31721
0.329794
0.341032
0.350885
0.359641
-1.1604
-1.16184
-1.16559
-1.16997
-1.17381
-1.17504
-1.17218
-1.16469
-1.15282
-1.1371
-1.11795
-1.09562
-1.07033
-1.04232
-1.01166
-0.97821
-0.941582
-0.901296
-0.856645
-0.806281
-0.748058
-0.679858
-0.601045
-0.514336
-0.423217
-0.33427
-0.252444
-0.179019
-0.113973
-0.0566957
-0.00629875
0.0381652
0.0775756
0.112689
0.14412
0.172343
0.197714
0.22051
0.240956
0.259259
0.275621
0.290248
0.303352
0.315094
0.325426
0.334648
-1.11096
-1.11286
-1.1157
-1.11852
-1.12021
-1.1194
-1.11508
-1.10687
-1.09489
-1.07937
-1.06048
-1.03839
-1.01335
-0.98558
-0.955132
-0.921761
-0.885052
-0.844594
-0.799905
-0.750217
-0.694438
-0.631621
-0.561842
-0.486832
-0.409221
-0.332862
-0.260825
-0.194531
-0.134446
-0.0804653
-0.0321503
0.0110902
0.0498726
0.0847612
0.116228
0.144647
0.170309
0.193446
0.214263
0.232953
0.249712
0.26474
0.278249
0.290396
0.301125
0.310745
-1.06251
-1.06452
-1.06702
-1.06912
-1.06977
-1.06793
-1.0629
-1.05443
-1.04253
-1.0272
-1.00854
-0.986755
-0.962124
-0.934843
-0.904893
-0.872001
-0.835781
-0.795898
-0.752074
-0.703929
-0.651
-0.592983
-0.530244
-0.464048
-0.396306
-0.32942
-0.265383
-0.205395
-0.150066
-0.0995363
-0.0536311
-0.0120004
0.0257662
0.0600635
0.0912319
0.119548
0.145236
0.168486
0.189477
0.208385
0.225391
0.240691
0.254491
0.266948
0.277996
0.28795
-1.01549
-1.01744
-1.01967
-1.02121
-1.02113
-1.01865
-1.01326
-1.00473
-0.992897
-0.977708
-0.959296
-0.93793
-0.913856
-0.887218
-0.85794
-0.825774
-0.790441
-0.75172
-0.709472
-0.663572
-0.613888
-0.56042
-0.503601
-0.444429
-0.384299
-0.324822
-0.267363
-0.212871
-0.161938
-0.114796
-0.0714125
-0.0315976
0.00490144
0.0383406
0.0689474
0.0969143
0.122405
0.145571
0.166558
0.185525
0.202639
0.218086
0.232072
0.244751
0.256044
0.266272
-0.970142
-0.971951
-0.973862
-0.974893
-0.974261
-0.971358
-0.965767
-0.957162
-0.945321
-0.930253
-0.912179
-0.891368
-0.867983
-0.842083
-0.813584
-0.782312
-0.748123
-0.710931
-0.670691
-0.627408
-0.581112
-0.531929
-0.48027
-0.426916
-0.372921
-0.319449
-0.267497
-0.217802
-0.170867
-0.126938
-0.0860592
-0.0481486
-0.0130705
0.0193232
0.0491706
0.0765938
0.101704
0.124613
0.145439
0.16432
0.181413
0.196897
0.210974
0.223794
0.235268
0.245712
-0.926447
-0.928114
-0.929727
-0.930369
-0.92936
-0.926183
-0.920403
-0.911653
-0.899784
-0.884912
-0.867301
-0.847148
-0.824529
-0.799431
-0.771798
-0.741566
-0.708714
-0.673266
-0.63524
-0.59468
-0.551677
-0.50641
-0.45925
-0.410825
-0.36195
-0.313505
-0.266254
-0.220765
-0.177437
-0.136501
-0.0980419
-0.0620521
-0.0284788
0.00274681
0.0316926