/*--------------------------------*- C++ -*----------------------------------*\
  =========                 |
  \\      /  F ield         | OpenFOAM: The Open Source CFD Toolbox
   \\    /   O peration     | Website:  https://openfoam.org
    \\  /    A nd           | Version:  7
     \\/     M anipulation  |
\*---------------------------------------------------------------------------*/
FoamFile
{
    version     2.0;
    format      ascii;
    class       surfaceScalarField;
    location    "0.05";
    object      phi;
}
// * * * * * * * * * * * * * * * * * * * * * * * * * * * * * * * * * * * * * //

dimensions      [0 3 -1 0 0 0 0];

internalField   nonuniform List<scalar> 
17936
(
4.76785e-07
-4.76785e-07
1.40441e-06
-9.2762e-07
2.5151e-06
-1.11069e-06
3.65001e-06
-1.13491e-06
4.74723e-06
-1.09722e-06
5.79472e-06
-1.04749e-06
6.80204e-06
-1.00732e-06
7.78567e-06
-9.83634e-07
8.7627e-06
-9.77025e-07
9.74851e-06
-9.85817e-07
1.07567e-05
-1.00822e-06
1.17996e-05
-1.04289e-06
1.28888e-05
-1.08914e-06
1.4036e-05
-1.14725e-06
1.52546e-05
-1.2186e-06
1.65608e-05
-1.30615e-06
1.79755e-05
-1.41476e-06
1.95271e-05
-1.55157e-06
2.12604e-05
-1.73333e-06
2.32287e-05
-1.96831e-06
2.55189e-05
-2.29016e-06
2.82639e-05
-2.74497e-06
3.11408e-05
-2.87693e-06
3.30491e-05
-1.90835e-06
3.32562e-05
-2.07025e-07
3.27579e-05
4.9827e-07
3.34473e-05
-6.89411e-07
3.50214e-05
-1.5741e-06
3.48297e-05
1.91683e-07
3.26671e-05
2.16266e-06
2.92694e-05
3.39766e-06
2.60368e-05
3.23272e-06
2.35636e-05
2.47312e-06
2.15986e-05
1.965e-06
1.99278e-05
1.67085e-06
1.83334e-05
1.59441e-06
1.67636e-05
1.56971e-06
1.51871e-05
1.57657e-06
1.35733e-05
1.61381e-06
1.18724e-05
1.70105e-06
1.00364e-05
1.83609e-06
8.02802e-06
2.00842e-06
5.84232e-06
2.18558e-06
3.56445e-06
2.27808e-06
1.47322e-06
2.09104e-06
1.4734e-06
7.02791e-07
-1.17957e-06
1.65587e-06
-1.8807e-06
2.67114e-06
-2.12596e-06
3.67786e-06
-2.14163e-06
4.64986e-06
-2.06922e-06
5.58545e-06
-1.98309e-06
6.49391e-06
-1.91577e-06
7.38801e-06
-1.87773e-06
8.28081e-06
-1.86983e-06
9.18435e-06
-1.88936e-06
1.01096e-05
-1.93345e-06
1.10667e-05
-2.00001e-06
1.20657e-05
-2.08818e-06
1.31171e-05
-2.19863e-06
1.42326e-05
-2.3341e-06
1.54265e-05
-2.5e-06
1.6717e-05
-2.70526e-06
1.81291e-05
-2.96373e-06
1.9698e-05
-3.30215e-06
2.1469e-05
-3.73938e-06
2.35027e-05
-4.32388e-06
2.57844e-05
-5.0266e-06
2.81381e-05
-5.23062e-06
3.01082e-05
-3.87852e-06
3.1255e-05
-1.35382e-06
3.15466e-05
2.06731e-07
3.08189e-05
3.81921e-08
3.10523e-05
-1.80748e-06
3.22739e-05
-1.02995e-06
3.17499e-05
2.68675e-06
2.91361e-05
6.01135e-06
2.61804e-05
6.18857e-06
2.36521e-05
5.00138e-06
2.16167e-05
4.00055e-06
1.98286e-05
3.45896e-06
1.81986e-05
3.22461e-06
1.66404e-05
3.12787e-06
1.51049e-05
3.11228e-06
1.3549e-05
3.16962e-06
1.19274e-05
3.32272e-06
1.01919e-05
3.57155e-06
8.29939e-06
3.90112e-06
6.22896e-06
4.25601e-06
4.02215e-06
4.48515e-06
1.85159e-06
4.26155e-06
3.32504e-06
8.6477e-07
-2.04434e-06
1.79573e-06
-2.81166e-06
2.69833e-06
-3.02855e-06
3.56588e-06
-3.00918e-06
4.40048e-06
-2.90382e-06
5.21021e-06
-2.79282e-06
6.0052e-06
-2.71076e-06
6.79562e-06
-2.66816e-06
7.59107e-06
-2.66527e-06
8.40038e-06
-2.69866e-06
9.23187e-06
-2.76495e-06
1.00936e-05
-2.86179e-06
1.0994e-05
-2.98853e-06
1.19419e-05
-3.14653e-06
1.29475e-05
-3.33976e-06
1.40233e-05
-3.57575e-06
1.51849e-05
-3.86685e-06
1.64534e-05
-4.23228e-06
1.78562e-05
-4.70488e-06
1.94295e-05
-5.31268e-06
2.12027e-05
-6.09715e-06
2.31384e-05
-6.96226e-06
2.5128e-05
-7.22024e-06
2.70008e-05
-5.75132e-06
2.85167e-05
-2.86964e-06
2.92195e-05
-4.96141e-07
2.77355e-05
1.52227e-06
2.6647e-05
-7.18955e-07
2.57962e-05
-1.79134e-07
2.49074e-05
3.5756e-06
2.3914e-05
7.00468e-06
2.25803e-05
7.52226e-06
2.10663e-05
6.51545e-06
1.95212e-05
5.54568e-06
1.80039e-05
4.97624e-06
1.65633e-05
4.66543e-06
1.51757e-05
4.5154e-06
1.38094e-05
4.47871e-06
1.24303e-05
4.54875e-06
1.10043e-05
4.74893e-06
9.49232e-06
5.08348e-06
7.85566e-06
5.53795e-06
6.06327e-06
6.04825e-06
4.11036e-06
6.43815e-06
2.04163e-06
6.33028e-06
5.36669e-06
9.60441e-07
-3.00478e-06
1.8592e-06
-3.71042e-06
2.66149e-06
-3.83085e-06
3.40652e-06
-3.75421e-06
4.11833e-06
-3.61564e-06
4.81315e-06
-3.48763e-06
5.50266e-06
-3.40027e-06
6.19564e-06
-3.36114e-06
6.89926e-06
-3.3689e-06
7.61989e-06
-3.41929e-06
8.36362e-06
-3.50868e-06
9.1367e-06
-3.63487e-06
9.94583e-06
-3.79765e-06
1.07985e-05
-3.99919e-06
1.17033e-05
-4.24459e-06
1.26707e-05
-4.54314e-06
1.37136e-05
-4.90976e-06
1.48487e-05
-5.36734e-06
1.60957e-05
-5.95192e-06
1.74791e-05
-6.69602e-06
1.90083e-05
-7.62643e-06
2.06482e-05
-8.60216e-06
2.23421e-05
-8.91413e-06
2.40612e-05
-7.47042e-06
2.55597e-05
-4.36813e-06
2.5787e-05
-7.23394e-07
2.47363e-05
2.57295e-06
2.36413e-05
3.76051e-07
2.22991e-05
1.16301e-06
2.11895e-05
4.68529e-06
2.04751e-05
7.71894e-06
1.96818e-05
8.31563e-06
1.86047e-05
7.59248e-06
1.7358e-05
6.79246e-06
1.60796e-05
6.25458e-06
1.48348e-05
5.91029e-06
1.36264e-05
5.72365e-06
1.24372e-05
5.66791e-06
1.12437e-05
5.74234e-06
1.00203e-05
5.97231e-06
8.73556e-06
6.36821e-06
7.35197e-06
6.92158e-06
5.82664e-06
7.5734e-06
4.1139e-06
8.15099e-06
2.16494e-06
8.2793e-06
7.53163e-06
1.00228e-06
-4.00707e-06
1.86329e-06
-4.57144e-06
2.58257e-06
-4.55011e-06
3.22757e-06
-4.39921e-06
3.83748e-06
-4.22554e-06
4.43474e-06
-4.0849e-06
5.03273e-06
-3.99826e-06
5.63975e-06
-3.96816e-06
6.26152e-06
-3.99067e-06
6.90267e-06
-4.06044e-06
7.56764e-06
-4.17365e-06
8.26113e-06
-4.32836e-06
8.98842e-06
-4.52494e-06
9.7556e-06
-4.76637e-06
1.05698e-05
-5.05874e-06
1.14393e-05
-5.41264e-06
1.23741e-05
-5.84461e-06
1.33861e-05
-6.37938e-06
1.44878e-05
-7.0536e-06
1.56916e-05
-7.89984e-06
1.6995e-05
-8.92983e-06
1.83688e-05
-9.97596e-06
1.97956e-05
-1.03409e-05
2.13106e-05
-8.98543e-06
2.26398e-05
-5.69734e-06
2.223e-05
-3.13552e-07
2.22414e-05
2.56153e-06
2.13319e-05
1.28556e-06
1.99278e-05
2.56695e-06
1.87144e-05
5.89882e-06
1.80146e-05
8.41861e-06
1.7351e-05
8.97931e-06
1.64545e-05
8.48897e-06
1.5404e-05
7.84289e-06
1.43148e-05
7.34374e-06
1.32414e-05
6.98375e-06
1.21962e-05
6.76873e-06
1.11709e-05
6.69335e-06
1.01492e-05
6.76405e-06
9.11232e-06
7.00922e-06
8.03299e-06
7.44756e-06
6.87319e-06
8.08143e-06
5.57868e-06
8.86781e-06
4.07142e-06
9.6584e-06
2.23608e-06
1.01146e-05
9.76769e-06
1.00444e-06
-5.01151e-06
1.82378e-06
-5.39078e-06
2.47603e-06
-5.20236e-06
3.04265e-06
-4.96583e-06
3.57173e-06
-4.75462e-06
4.08988e-06
-4.60306e-06
4.61193e-06
-4.5203e-06
5.14618e-06
-4.50241e-06
5.69761e-06
-4.5421e-06
6.26981e-06
-4.63264e-06
6.86602e-06
-4.76986e-06
7.48976e-06
-4.9521e-06
8.14514e-06
-5.18032e-06
8.83697e-06
-5.4582e-06
9.57088e-06
-5.79265e-06
1.03532e-05
-6.19499e-06
1.11911e-05
-6.68249e-06
1.20918e-05
-7.28008e-06
1.30609e-05
-8.02266e-06
1.41006e-05
-8.93958e-06
1.52001e-05
-1.00293e-05
1.63359e-05
-1.11118e-05
1.75199e-05
-1.15249e-05
1.88065e-05
-1.02721e-05
1.99478e-05
-6.83863e-06
1.99475e-05
-3.13206e-07
2.04866e-05
2.02238e-06
1.96936e-05
2.07864e-06
1.81738e-05
4.08665e-06
1.68932e-05
7.17953e-06
1.61209e-05
9.19088e-06
1.54437e-05
9.65651e-06
1.46297e-05
9.30303e-06
1.37147e-05
8.75791e-06
1.2774e-05
8.28443e-06
1.18455e-05
7.91244e-06
1.09424e-05
7.67188e-06
1.00613e-05
7.5745e-06
9.19106e-06
7.63432e-06
8.31688e-06
7.88349e-06
7.41407e-06
8.35036e-06
6.44285e-06
9.05268e-06
5.33914e-06
9.97155e-06
4.00012e-06
1.09975e-05
2.26522e-06
1.18495e-05
1.20329e-05
9.78406e-07
-5.98991e-06
1.75354e-06
-6.16592e-06
2.35225e-06
-5.80107e-06
2.85932e-06
-5.4729e-06
3.32662e-06
-5.22192e-06
3.78297e-06
-5.05942e-06
4.24416e-06
-4.98149e-06
4.71873e-06
-4.97698e-06
5.2114e-06
-5.03476e-06
5.72519e-06
-5.14644e-06
6.26262e-06
-5.30728e-06
6.82635e-06
-5.51583e-06
7.41954e-06
-5.7735e-06
8.04593e-06
-6.08459e-06
8.70979e-06
-6.45651e-06
9.41568e-06
-6.90088e-06
1.0168e-05
-7.43484e-06
1.097e-05
-8.0821e-06
1.18214e-05
-8.874e-06
1.27163e-05
-9.8345e-06
1.36379e-05
-1.09509e-05
1.45675e-05
-1.20413e-05
1.55379e-05
-1.24953e-05
1.66312e-05
-1.13654e-05
1.76664e-05
-7.87381e-06
1.87195e-05
-1.36633e-06
1.93182e-05
1.42362e-06
1.8398e-05
2.99886e-06
1.67613e-05
5.72335e-06
1.5443e-05
8.49795e-06
1.45931e-05
1.00407e-05
1.38749e-05
1.03747e-05
1.31058e-05
1.00721e-05
1.22887e-05
9.57507e-06
1.14652e-05
9.10796e-06
1.06569e-05
8.72075e-06
9.87443e-06
8.45433e-06
9.11692e-06
8.33206e-06
8.37621e-06
8.37502e-06
7.63977e-06
8.61992e-06
6.88421e-06
9.10593e-06
6.06781e-06
9.86913e-06
5.1184e-06
1.0921e-05
3.91451e-06
1.22013e-05
2.26607e-06
1.3498e-05
1.4299e-05
9.33221e-07
-6.92312e-06
1.6628e-06
-6.8955e-06
2.21902e-06
-6.35729e-06
2.68241e-06
-5.93629e-06
3.10445e-06
-5.64395e-06
3.51444e-06
-5.46941e-06
3.92859e-06
-5.39564e-06
4.35571e-06
-5.4041e-06
4.80056e-06
-5.47962e-06
5.266e-06
-5.61187e-06
5.75413e-06
-5.79541e-06
6.26708e-06
-6.02879e-06
6.80729e-06
-6.31371e-06
7.37761e-06
-6.65491e-06
7.98118e-06
-7.06008e-06
8.62098e-06
-7.54068e-06
9.29917e-06
-8.11302e-06
1.00157e-05
-8.7986e-06
1.07655e-05
-9.62387e-06
1.15372e-05
-1.06062e-05
1.23102e-05
-1.17239e-05
1.30703e-05
-1.28014e-05
1.38683e-05
-1.32933e-05
1.48354e-05
-1.23325e-05
1.59456e-05
-8.98398e-06
1.7803e-05
-3.22373e-06
1.83723e-05
8.54228e-07
1.72462e-05
4.12506e-06
1.55579e-05
7.41156e-06
1.42442e-05
9.81171e-06
1.33371e-05
1.09477e-05
1.25859e-05
1.11259e-05
1.18484e-05
1.08095e-05
1.11054e-05
1.0318e-05
1.03745e-05
9.83886e-06
9.66511e-06
9.43022e-06
8.98365e-06
9.13579e-06
8.32997e-06
8.98565e-06
7.69778e-06
9.00719e-06
7.07563e-06
9.24207e-06
6.44073e-06
9.74079e-06
5.74983e-06
1.05601e-05
4.92464e-06
1.17462e-05
3.82969e-06
1.32962e-05
2.25554e-06
1.50722e-05
1.65544e-05
8.75631e-07
-7.79875e-06
1.55954e-06
-7.57941e-06
2.08241e-06
-6.88016e-06
2.51538e-06
-6.36926e-06
2.90631e-06
-6.03488e-06
3.28345e-06
-5.84655e-06
3.66291e-06
-5.77509e-06
4.05369e-06
-5.79488e-06
4.4608e-06
-5.88673e-06
4.88719e-06
-6.03825e-06
5.33486e-06
-6.24309e-06
5.80565e-06
-6.49957e-06
6.30149e-06
-6.80955e-06
6.82455e-06
-7.17797e-06
7.37704e-06
-7.61256e-06
7.96067e-06
-8.12431e-06
8.57583e-06
-8.72819e-06
9.22002e-06
-9.44279e-06
9.88512e-06
-1.0289e-05
1.0556e-05
-1.1277e-05
1.12108e-05
-1.23787e-05
1.184e-05
-1.34306e-05
1.25105e-05
-1.39638e-05
1.34045e-05
-1.32265e-05
1.4674e-05
-1.02535e-05
1.69078e-05
-5.45755e-06
1.74388e-05
3.23193e-07
1.61792e-05
5.38479e-06
1.45273e-05
9.06337e-06
1.32391e-05
1.10999e-05
1.23014e-05
1.18854e-05
1.15331e-05
1.18942e-05
1.08227e-05
1.15199e-05
1.01382e-05
1.10026e-05
9.48127e-06
1.04958e-05
8.85279e-06
1.00587e-05
8.25501e-06
9.73354e-06
7.68743e-06
9.55322e-06
7.14476e-06
9.54993e-06
6.61612e-06
9.77068e-06
6.07922e-06
1.02777e-05
5.49003e-06
1.11493e-05
4.76616e-06
1.247e-05
3.76156e-06
1.43007e-05
2.25193e-06
1.65819e-05
1.88063e-05
8.1039e-07
-8.60915e-06
1.44992e-06
-8.21893e-06
1.94744e-06
-7.37767e-06
2.36128e-06
-6.78311e-06
2.73324e-06
-6.40683e-06
3.0893e-06
-6.20262e-06
3.44498e-06
-6.13077e-06
3.80942e-06
-6.15932e-06
4.18798e-06
-6.26529e-06
4.5839e-06
-6.43416e-06
4.99931e-06
-6.65851e-06
5.43594e-06
-6.93621e-06
5.89545e-06
-7.26907e-06
6.3795e-06
-7.66201e-06
6.88959e-06
-8.12265e-06
7.42651e-06
-8.66123e-06
7.9894e-06
-9.29108e-06
8.57418e-06
-1.00276e-05
9.171e-06
-1.08858e-05
9.76311e-06
-1.18691e-05
1.03292e-05
-1.29449e-05
1.08646e-05
-1.3966e-05
1.14475e-05
-1.45466e-05
1.23005e-05
-1.40795e-05
1.37134e-05
-1.16664e-05
1.60443e-05
-7.78843e-06
1.65103e-05
-1.42916e-07
1.52194e-05
6.67576e-06
1.36485e-05
1.06342e-05
1.23995e-05
1.2349e-05
1.14542e-05
1.28307e-05
1.06834e-05
1.2665e-05
9.99873e-06
1.22044e-05
9.36211e-06
1.16392e-05
8.76492e-06
1.1093e-05
8.20246e-06
1.06212e-05
7.67346e-06
1.02626e-05
7.17652e-06
1.00501e-05
6.70681e-06
1.00197e-05
6.25403e-06
1.02235e-05
5.79661e-06
1.07351e-05
5.29094e-06
1.1655e-05
4.65266e-06
1.31083e-05
3.72761e-06
1.52257e-05
2.27561e-06
1.8034e-05
2.10819e-05
7.40823e-07
-9.34997e-06
1.33898e-06
-8.81708e-06
1.81876e-06
-7.85746e-06
2.22342e-06
-7.18777e-06
2.58697e-06
-6.77038e-06
2.93225e-06
-6.5479e-06
3.27384e-06
-6.47236e-06
3.62094e-06
-6.50642e-06
3.97934e-06
-6.62368e-06
4.35271e-06
-6.80753e-06
4.74349e-06
-7.04929e-06
5.15351e-06
-7.34622e-06
5.58427e-06
-7.69983e-06
6.03712e-06
-8.11487e-06
6.51309e-06
-8.59862e-06
7.01234e-06
-9.16048e-06
7.53326e-06
-9.81199e-06
8.07099e-06
-1.05653e-05
8.61524e-06
-1.143e-05
9.14937e-06
-1.24033e-05
9.65401e-06
-1.34495e-05
1.01284e-05
-1.44404e-05
1.06555e-05
-1.50737e-05
1.14759e-05
-1.48998e-05
1.29576e-05
-1.31482e-05
1.52388e-05
-1.00695e-05
1.56359e-05
-5.40053e-07
1.43847e-05
7.92694e-06
1.29122e-05
1.21067e-05
1.17108e-05
1.35503e-05
1.0775e-05
1.37664e-05
1.00129e-05
1.34271e-05
9.35361e-06
1.28637e-05
8.75722e-06
1.22356e-05
8.20881e-06
1.16414e-05
7.70005e-06
1.113e-05
7.22713e-06
1.07355e-05
6.78757e-06
1.04897e-05
6.3768e-06
1.04305e-05
5.98526e-06
1.0615e-05
5.59284e-06
1.11276e-05
5.15782e-06
1.209e-05
4.59654e-06
1.36696e-05
3.74883e-06
1.60734e-05
2.35195e-06
1.9431e-05
2.34339e-05
6.69548e-07
-1.00195e-05
1.23152e-06
-9.37905e-06
1.70142e-06
-8.32736e-06
2.10598e-06
-7.59233e-06
2.47049e-06
-7.13488e-06
2.81413e-06
-6.89153e-06
3.1503e-06
-6.80853e-06
3.48825e-06
-6.84437e-06
3.83424e-06
-6.96967e-06
4.19251e-06
-7.1658e-06
4.56592e-06
-7.4227e-06
4.9565e-06
-7.73681e-06
5.36582e-06
-8.10914e-06
5.79503e-06
-8.54408e-06
6.24486e-06
-9.04846e-06
6.71516e-06
-9.63078e-06
7.204e-06
-1.03008e-05
7.70644e-06
-1.10677e-05
8.21273e-06
-1.19363e-05
8.70767e-06
-1.28982e-05
9.17467e-06
-1.39165e-05
9.6155e-06
-1.48812e-05
1.01105e-05
-1.55688e-05
1.08983e-05
-1.56876e-05
1.23512e-05
-1.46011e-05
1.44886e-05
-1.2207e-05
1.48406e-05
-8.91977e-07
1.36781e-05
9.08938e-06
1.2313e-05
1.34718e-05
1.11662e-05
1.46971e-05
1.02525e-05
1.46802e-05
9.50717e-06
1.41724e-05
8.87284e-06
1.34981e-05
8.31073e-06
1.27977e-05
7.80227e-06
1.21499e-05
7.33689e-06
1.15953e-05
6.90915e-06
1.11633e-05
6.51566e-06
1.08832e-05
6.15208e-06
1.07941e-05
5.81002e-06
1.0957e-05
5.47177e-06
1.14658e-05
5.09965e-06
1.2462e-05
4.61421e-06
1.4155e-05
3.8528e-06
1.68347e-05
2.51681e-06
2.07671e-05
2.59507e-05
5.99384e-07
-1.06189e-05
1.13312e-06
-9.91278e-06
1.60153e-06
-8.79578e-06
2.01444e-06
-8.00525e-06
2.38831e-06
-7.50875e-06
2.73846e-06
-7.24169e-06
3.07709e-06
-7.14717e-06
3.41346e-06
-7.18073e-06
3.75435e-06
-7.31057e-06
4.10464e-06
-7.51608e-06
4.46771e-06
-7.78577e-06
4.84592e-06
-8.11503e-06
5.24097e-06
-8.50419e-06
5.654e-06
-8.95711e-06
6.08559e-06
-9.48005e-06
6.53549e-06
-1.00807e-05
7.0018e-06
-1.07671e-05
7.48002e-06
-1.1546e-05
7.96168e-06
-1.2418e-05
8.43389e-06
-1.33704e-05
8.88325e-06
-1.43659e-05
9.31206e-06
-1.531e-05
9.78946e-06
-1.60462e-05
1.05334e-05
-1.64316e-05
1.18798e-05
-1.59474e-05
1.37846e-05
-1.41119e-05
1.41192e-05
-1.22654e-06
1.30923e-05
1.01162e-05
1.1849e-05
1.47151e-05
1.07661e-05
1.578e-05
9.88393e-06
1.55624e-05
9.16091e-06
1.48954e-05
8.55073e-06
1.41083e-05
8.01762e-06
1.33308e-05
7.54149e-06
1.2626e-05
7.11054e-06
1.20262e-05
6.7184e-06
1.15554e-05
6.3612e-06
1.12404e-05
6.03503e-06
1.11203e-05
5.73317e-06
1.12589e-05
5.44159e-06
1.17574e-05
5.12945e-06
1.27741e-05
4.72703e-06
1.45575e-05
4.07675e-06
1.74849e-05
2.82524e-06
2.20186e-05
2.87758e-05
5.35744e-07
-1.11547e-05
1.05179e-06
-1.04288e-05
1.5273e-06
-9.27129e-06
1.95627e-06
-8.43422e-06
2.34687e-06
-7.89935e-06
2.7108e-06
-7.60562e-06
3.05906e-06
-7.49543e-06
3.40093e-06
-7.52259e-06
3.74373e-06
-7.65337e-06
4.09301e-06
-7.86536e-06
4.45273e-06
-8.14549e-06
4.82567e-06
-8.48797e-06
5.21373e-06
-8.89225e-06
5.61814e-06
-9.36152e-06
6.03948e-06
-9.90139e-06
6.47752e-06
-1.05187e-05
6.93065e-06
-1.12203e-05
7.39512e-06
-1.20104e-05
7.86409e-06
-1.2887e-05
8.32749e-06
-1.38338e-05
8.77491e-06
-1.48133e-05
9.20738e-06
-1.57425e-05
9.67352e-06
-1.65123e-05
1.03368e-05
-1.70949e-05
1.14352e-05
-1.70457e-05
1.30706e-05
-1.57473e-05
1.344e-05
-1.59595e-06
1.26132e-05
1.0943e-05
1.15204e-05
1.58079e-05
1.05168e-05
1.67835e-05
9.67542e-06
1.64038e-05
8.97855e-06
1.55923e-05
8.39107e-06
1.46958e-05
7.88174e-06
1.38401e-05
7.43069e-06
1.30771e-05
7.02588e-06
1.2431e-05
6.66065e-06
1.19207e-05
6.33109e-06
1.15699e-05
6.03409e-06
1.14172e-05
5.7653e-06
1.15277e-05
5.51589e-06
1.20068e-05
5.2654e-06
1.30246e-05
4.96252e-06
1.48604e-05
4.4702e-06
1.79772e-05
3.36118e-06
2.31276e-05
3.21369e-05
4.9071e-07
-1.16454e-05
1.00043e-06
-1.09385e-05
1.49069e-06
-9.76154e-06
1.94227e-06
-8.8858e-06
2.35597e-06
-8.31305e-06
2.74015e-06
-7.9898e-06
3.1047e-06
-7.85999e-06
3.4589e-06
-7.87679e-06
3.81058e-06
-8.00505e-06
4.16592e-06
-8.22069e-06
4.52949e-06
-8.50907e-06
4.90453e-06
-8.863e-06
5.29321e-06
-9.28093e-06
5.69691e-06
-9.76522e-06
6.1163e-06
-1.03208e-05
6.55129e-06
-1.09537e-05
7.00062e-06
-1.16696e-05
7.46139e-06
-1.24712e-05
7.92843e-06
-1.3354e-05
8.39438e-06
-1.42998e-05
8.85153e-06
-1.52704e-05
9.29786e-06
-1.61888e-05
9.75494e-06
-1.69694e-05
1.03271e-05
-1.76671e-05
1.11527e-05
-1.78713e-05
1.24171e-05
-1.70117e-05
1.28237e-05
-2.00251e-06
1.22462e-05
1.15204e-05
1.13423e-05
1.67118e-05
1.04377e-05
1.76881e-05
9.64598e-06
1.71955e-05
8.97722e-06
1.62611e-05
8.4095e-06
1.52635e-05
7.91774e-06
1.43319e-05
7.484e-06
1.35108e-05
7.09688e-06
1.28181e-05
6.75e-06
1.22676e-05
6.43992e-06
1.188e-05
6.16485e-06
1.16923e-05
5.92367e-06
1.17689e-05
5.71454e-06
1.2216e-05
5.53181e-06
1.32074e-05
5.35435e-06
1.50378e-05
5.09804e-06
1.82335e-05
4.20535e-06
2.40203e-05
3.63424e-05
4.76936e-07
-1.21223e-05
9.92136e-07
-1.14537e-05
1.50248e-06
-1.02719e-05
1.98103e-06
-9.36435e-06
2.42266e-06
-8.75468e-06
2.83266e-06
-8.3998e-06
3.21971e-06
-8.24704e-06
3.59292e-06
-8.25e-06
3.96046e-06
-8.37259e-06
4.32906e-06
-8.58929e-06
4.70387e-06
-8.88388e-06
5.08858e-06
-9.24771e-06
5.48568e-06
-9.67804e-06
5.89676e-06
-1.01763e-05
6.32263e-06
-1.07466e-05
6.76333e-06
-1.13944e-05
7.21798e-06
-1.21243e-05
7.68439e-06
-1.29376e-05
8.15879e-06
-1.38284e-05
8.63604e-06
-1.4777e-05
9.1104e-06
-1.57448e-05
9.57474e-06
-1.66532e-05
1.00295e-05
-1.74241e-05
1.05328e-05
-1.81704e-05
1.11244e-05
-1.84629e-05
1.19001e-05
-1.77873e-05
1.23035e-05
-2.40595e-06
1.20345e-05
1.17895e-05
1.13529e-05
1.73933e-05
1.05631e-05
1.84778e-05
9.82521e-06
1.79335e-05
9.1812e-06
1.6905e-05
8.62619e-06
1.58185e-05
8.14305e-06
1.4815e-05
7.717e-06
1.39369e-05
7.33799e-06
1.31971e-05
7.00024e-06
1.26054e-05
6.70114e-06
1.21791e-05
6.44083e-06
1.19526e-05
6.22242e-06
1.19873e-05
6.0533e-06
1.23851e-05
5.94817e-06
1.33125e-05
5.93187e-06
1.50541e-05
6.00836e-06
1.8157e-05
5.55361e-06
2.44751e-05
4.1896e-05
4.78254e-07
-4.78254e-07
1.16329e-06
-6.85054e-07
1.85055e-06
-6.8741e-07
2.43847e-06
-5.87941e-07
2.89097e-06
-4.52602e-07
3.21584e-06
-3.24913e-07
3.43379e-06
-2.18037e-07
3.56575e-06
-1.31979e-07
3.63124e-06
-6.5548e-08
3.6452e-06
-1.39565e-08
3.61932e-06
2.5869e-08
3.56352e-06
5.58263e-08
3.48483e-06
7.86978e-08
3.3888e-06
9.60388e-08
3.2796e-06
1.09237e-07
3.16026e-06
1.19318e-07
3.03354e-06
1.26755e-07
2.90116e-06
1.32344e-07
2.76491e-06
1.3631e-07
2.62603e-06
1.38861e-07
2.48547e-06
1.40568e-07
2.34413e-06
1.41398e-07
2.20224e-06
1.41843e-07
2.06061e-06
1.41715e-07
1.91916e-06
1.4138e-07
1.77817e-06
1.41043e-07
1.63754e-06
1.40654e-07
1.49673e-06
1.40762e-07
1.35568e-06
1.41173e-07
1.21287e-06
1.42688e-07
1.06739e-06
1.45611e-07
9.1701e-07
1.5037e-07
7.59291e-07
1.57693e-07
5.92827e-07
1.66583e-07
4.17835e-07
1.74855e-07
2.43652e-07
1.74374e-07
9.29366e-08
1.50601e-07
9.30883e-08
5.79927e-07
-1.05836e-06
1.26661e-06
-1.37177e-06
1.90399e-06
-1.32499e-06
2.43608e-06
-1.1201e-06
2.84411e-06
-8.60779e-07
3.13812e-06
-6.18966e-07
3.33536e-06
-4.15393e-07
3.45424e-06
-2.50858e-07
3.51187e-06
-1.23228e-07
3.52214e-06
-2.41923e-08
3.49596e-06
5.20417e-08
3.44159e-06
1.10229e-07
3.36547e-06
1.54854e-07
3.27281e-06
1.8869e-07
3.16769e-06
2.14398e-07
3.05313e-06
2.33839e-07
2.93177e-06
2.4821e-07
2.80534e-06
2.58731e-07
2.6755e-06
2.66197e-07
2.54331e-06
2.71103e-07
2.40963e-06
2.74232e-07
2.27527e-06
2.75864e-07
2.14044e-06
2.76561e-07
2.00575e-06
2.76507e-07
1.87113e-06
2.75983e-07
1.73677e-06
2.75416e-07
1.60264e-06
2.74899e-07
1.46819e-06
2.75066e-07
1.33338e-06
2.76202e-07
1.19689e-06
2.79078e-07
1.05795e-06
2.8464e-07
9.14804e-07
2.93598e-07
7.65422e-07
3.06937e-07
6.08642e-07
3.23615e-07
4.43769e-07
3.39541e-07
2.75907e-07
3.42486e-07
1.18666e-07
3.07619e-07
2.11858e-07
6.66048e-07
-1.72456e-06
1.33654e-06
-2.04227e-06
1.9049e-06
-1.89349e-06
2.35995e-06
-1.57519e-06
2.7034e-06
-1.20433e-06
2.94885e-06
-8.64449e-07
3.11243e-06
-5.79037e-07
3.20935e-06
-3.47785e-07
3.2536e-06
-1.67507e-07
3.25665e-06
-2.72248e-08
3.22772e-06
8.09701e-08
3.17413e-06
1.63832e-07
3.10154e-06
2.27453e-07
3.0145e-06
2.7573e-07
2.91663e-06
3.1233e-07
2.81058e-06
3.39852e-07
2.69868e-06
3.60177e-07
2.58247e-06
3.74942e-07
2.46338e-06
3.85331e-07
2.34235e-06
3.92159e-07
2.22008e-06
3.96432e-07
2.09731e-06
3.98713e-07
1.97421e-06
3.99615e-07
1.85128e-06
3.99524e-07
1.72848e-06
3.98778e-07
1.60593e-06
3.97936e-07
1.48366e-06
3.97267e-07
1.3612e-06
3.97439e-07
1.23855e-06
3.99007e-07
1.11474e-06
4.02831e-07
9.89223e-07
4.10181e-07
8.60861e-07
4.2205e-07
7.28091e-07
4.39598e-07
5.89847e-07
4.62045e-07
4.44346e-07
4.84896e-07
2.9229e-07
4.94724e-07
1.3762e-07
4.62136e-07
3.49553e-07
7.32317e-07
-2.457e-06
1.38138e-06
-2.69133e-06
1.8867e-06
-2.39892e-06
2.2696e-06
-1.95811e-06
2.55021e-06
-1.48502e-06
2.74653e-06
-1.06078e-06
2.87479e-06
-7.07351e-07
2.94808e-06
-4.2108e-07
2.97753e-06
-1.96979e-07
2.9725e-06
-2.218e-08
2.94042e-06
1.13041e-07
2.88748e-06
2.16793e-07
2.81847e-06
2.96482e-07
2.7372e-06
3.56989e-07
2.64677e-06
4.02794e-07
2.54948e-06
4.37132e-07
2.44728e-06
4.62413e-07
2.34154e-06
4.80663e-07
2.23343e-06
4.93427e-07
2.12379e-06
5.01825e-07
2.0132e-06
5.07008e-07
1.90227e-06
5.09725e-07
1.79116e-06
5.10686e-07
1.68029e-06
5.10445e-07
1.56963e-06
5.09431e-07
1.45928e-06
5.08266e-07
1.34932e-06
5.07337e-07
1.23936e-06
5.07333e-07
1.12949e-06
5.08981e-07
1.01908e-06
5.13214e-07
9.07818e-07
5.21451e-07
7.95046e-07
5.34913e-07
6.79549e-07
5.55001e-07
5.60172e-07
5.8156e-07
4.34161e-07
6.10789e-07
2.98822e-07
6.30201e-07
1.50835e-07
6.10005e-07
5.0044e-07
7.78956e-07
-3.23607e-06
1.41104e-06
-3.32341e-06
1.86526e-06
-2.85323e-06
2.18703e-06
-2.2799e-06
2.41213e-06
-1.71018e-06
2.56373e-06
-1.21239e-06
2.65879e-06
-8.02446e-07
2.70924e-06
-4.71531e-07
2.724e-06
-2.11759e-07
2.71062e-06
-8.7868e-09
2.67499e-06
1.48669e-07
2.62211e-06
2.69676e-07
2.55597e-06
3.62633e-07
2.47968e-06
4.33272e-07
2.39583e-06
4.86661e-07
2.30634e-06
5.26589e-07
2.21285e-06
5.55913e-07
2.11652e-06
5.76987e-07
2.01832e-06
5.91638e-07
1.91896e-06
6.01226e-07
1.81891e-06
6.07035e-07
1.7187e-06
6.09989e-07
1.61846e-06
6.10891e-07
1.51853e-06
6.10412e-07
1.41893e-06
6.09053e-07
1.31972e-06
6.07467e-07
1.22101e-06
6.06131e-07
1.12254e-06
6.0575e-07
1.02446e-06
6.07137e-07
9.2643e-07
6.11248e-07
8.28323e-07
6.19561e-07
7.29799e-07
6.33515e-07
6.29856e-07
6.54861e-07
5.27171e-07
6.84352e-07
4.18237e-07
7.19629e-07
2.97953e-07
7.50589e-07
1.57883e-07
7.49973e-07
6.58355e-07
8.09906e-07
-4.04607e-06
1.43333e-06
-3.94682e-06
1.84928e-06
-3.26926e-06
2.12125e-06
-2.55189e-06
2.29894e-06
-1.88791e-06
2.4111e-06
-1.32456e-06
2.47605e-06
-8.67425e-07
2.50516e-06
-5.00647e-07
2.50582e-06
-2.12423e-07
2.48403e-06
1.30064e-08
2.44442e-06
1.88279e-07
2.39091e-06
3.23194e-07
2.32672e-06
4.26832e-07
2.25433e-06
5.05648e-07
2.17586e-06
5.65141e-07
2.0929e-06
6.09534e-07
2.00677e-06
6.42054e-07
1.91845e-06
6.65314e-07
1.82871e-06
6.81369e-07
1.73817e-06
6.91793e-07
1.64719e-06
6.97986e-07
1.55623e-06
7.01006e-07
1.46538e-06
7.01725e-07
1.37493e-06
7.00896e-07
1.28492e-06
6.99091e-07
1.19539e-06
6.96981e-07
1.10648e-06
6.95107e-07
1.01803e-06
6.94163e-07
9.30257e-07
6.94981e-07
8.43005e-07
6.98514e-07
7.5629e-07
7.0627e-07
6.69955e-07
7.19917e-07
5.83093e-07
7.41653e-07
4.94204e-07
7.73328e-07
3.99256e-07
8.14502e-07
2.91545e-07
8.58372e-07
1.59391e-07
8.82036e-07
8.1776e-07
8.31278e-07
-4.87744e-06
1.45613e-06
-4.57166e-06
1.84568e-06
-3.65887e-06
2.07754e-06
-2.78376e-06
2.21479e-06
-2.02519e-06
2.29224e-06
-1.40202e-06
2.33001e-06
-9.0522e-07
2.33932e-06
-5.09955e-07
2.32647e-06
-1.99582e-07
2.29624e-06
4.32366e-08
2.25219e-06
2.32334e-07
2.19728e-06
3.78107e-07
2.13405e-06
4.90078e-07
2.06443e-06
5.7527e-07
1.99009e-06
6.39501e-07
1.91229e-06
6.87317e-07
1.83211e-06
7.22238e-07
1.75033e-06
7.47088e-07
1.66758e-06
7.64115e-07
1.58435e-06
7.75054e-07
1.50092e-06
7.81395e-07
1.41768e-06
7.84298e-07
1.3347e-06
7.84697e-07
1.25221e-06
7.8341e-07
1.17026e-06
7.81064e-07
1.08888e-06
7.78338e-07
1.00825e-06
7.75809e-07
9.28259e-07
7.74135e-07
8.49156e-07
7.74133e-07
7.70938e-07
7.7675e-07
6.93675e-07
7.83522e-07
6.17293e-07
7.96362e-07
5.40908e-07
8.17982e-07
4.62861e-07
8.51443e-07
3.78816e-07
8.98482e-07
2.81152e-07
9.56082e-07
1.56567e-07
1.00654e-06
9.74329e-07
8.49168e-07
-5.72669e-06
1.48769e-06
-5.21017e-06
1.8611e-06
-4.03234e-06
2.06008e-06
-2.98275e-06
2.16193e-06
-2.12707e-06
2.2082e-06
-1.44829e-06
2.22104e-06
-9.18073e-07
2.21172e-06
-5.00637e-07
2.18578e-06
-1.73657e-07
2.14697e-06
8.20425e-08
2.09795e-06
2.81359e-07
2.04085e-06
4.35205e-07
1.97758e-06
5.53367e-07
1.90956e-06
6.43282e-07
1.8381e-06
7.10985e-07
1.76414e-06
7.61254e-07
1.68854e-06
7.97843e-07
1.61189e-06
8.23742e-07
1.53468e-06
8.41329e-07
1.4573e-06
8.52464e-07
1.37997e-06
8.58714e-07
1.30298e-06
8.61321e-07
1.22641e-06
8.61266e-07
1.15041e-06
8.59415e-07
1.07506e-06
8.56442e-07
1.00037e-06
8.53017e-07
9.2652e-07
8.49719e-07
8.53465e-07
8.47176e-07
7.81446e-07
8.46185e-07
7.1054e-07
8.47682e-07
6.40823e-07
8.53232e-07
5.72222e-07
8.65019e-07
5.03834e-07
8.86323e-07
4.33884e-07
9.21444e-07
3.57941e-07
9.74372e-07
2.68067e-07
1.04599e-06
1.50654e-07
1.12387e-06
1.12498e-06
8.6883e-07
-6.59559e-06
1.53701e-06
-5.87835e-06
1.90283e-06
-4.3982e-06
2.07321e-06
-3.15315e-06
2.1424e-06
-2.19627e-06
2.1595e-06
-1.4654e-06
2.14871e-06
-9.07301e-07
2.1214e-06
-4.73337e-07
2.08247e-06
-1.34746e-07
2.03476e-06
1.29749e-07
1.98012e-06
3.3599e-07
1.91998e-06
4.95347e-07
1.85564e-06
6.17719e-07
1.7881e-06
7.10807e-07
1.71828e-06
7.80806e-07
1.64689e-06
8.32636e-07
1.57454e-06
8.70205e-07
1.50167e-06
8.96621e-07
1.42864e-06
9.14365e-07
1.35574e-06
9.25391e-07
1.28313e-06
9.31315e-07
1.21103e-06
9.33443e-07
1.13949e-06
9.32806e-07
1.06862e-06
9.30292e-07
9.98499e-07
9.26598e-07
9.29122e-07
9.22383e-07
8.60654e-07
9.18227e-07
7.93094e-07
9.14724e-07
7.26657e-07
9.12648e-07
6.6144e-07
9.1293e-07
5.97476e-07
9.17188e-07
5.3464e-07
9.27903e-07
4.71982e-07
9.48941e-07
4.07667e-07
9.85801e-07
3.37361e-07
1.04464e-06
2.53331e-07
1.13003e-06
1.42679e-07
1.23446e-06
1.26765e-06
8.95107e-07
-7.49076e-06
1.61493e-06
-6.59816e-06
1.97965e-06
-4.76295e-06
2.12214e-06
-3.29566e-06
2.15878e-06
-2.23293e-06
2.14707e-06
-1.4537e-06
2.11293e-06
-8.73177e-07
2.06764e-06
-4.28054e-07
2.01542e-06
-8.25381e-08
1.95823e-06
1.86939e-07
1.89719e-06
3.97025e-07
1.83305e-06
5.59475e-07
1.76658e-06
6.84198e-07
1.69836e-06
7.79012e-07
1.62899e-06
8.50182e-07
1.55891e-06
9.0271e-07
1.48853e-06
9.40592e-07
1.41816e-06
9.67015e-07
1.348e-06
9.84519e-07
1.27829e-06
9.95128e-07
1.2091e-06
1.00049e-06
1.14059e-06
1.00197e-06
1.0728e-06
1.00061e-06
1.00578e-06
9.97322e-07
9.39592e-07
9.92807e-07
8.74237e-07
9.87719e-07
8.0985e-07
9.82639e-07
7.46443e-07
9.78126e-07
6.84181e-07
9.7493e-07
6.23139e-07
9.74002e-07
5.63271e-07
9.77046e-07
5.04356e-07
9.86859e-07
4.45384e-07
1.00788e-06
3.8451e-07
1.04671e-06
3.1767e-07
1.11144e-06
2.37781e-07
1.20993e-06
1.33425e-07
1.33875e-06
1.40106e-06
9.35819e-07
-8.42663e-06
1.73652e-06
-7.39886e-06
2.10291e-06
-5.12937e-06
2.2135e-06
-3.40626e-06
2.21473e-06
-2.23416e-06
2.17277e-06
-1.41174e-06
2.11449e-06
-8.14899e-07
2.05055e-06
-3.64109e-07
1.9843e-06
-1.62815e-08
1.91677e-06
2.54471e-07
1.84835e-06
4.65451e-07
1.77915e-06
6.28677e-07
1.70939e-06
7.53956e-07
1.63931e-06
8.49095e-07
1.56916e-06
9.20348e-07
1.49914e-06
9.72728e-07
1.42947e-06
1.01027e-06
1.36031e-06
1.03619e-06
1.29178e-06
1.05306e-06
1.22398e-06
1.06294e-06
1.15696e-06
1.06751e-06
1.0908e-06
1.06815e-06
1.02551e-06
1.06592e-06
9.61108e-07
1.06172e-06
8.97638e-07
1.05629e-06
8.35079e-07
1.05026e-06
7.73536e-07
1.0442e-06
7.13009e-07
1.03866e-06
6.53597e-07
1.03435e-06
5.95315e-07
1.03231e-06
5.38006e-07
1.03434e-06
4.81322e-07
1.04358e-06
4.24183e-07
1.065e-06
3.64773e-07
1.10615e-06
2.99443e-07
1.17675e-06
2.22124e-07
1.28725e-06
1.23486e-07
1.43734e-06
1.52453e-06
1.01159e-06
-9.43826e-06
1.92585e-06
-8.31312e-06
2.28764e-06
-5.49119e-06
2.3556e-06
-3.47422e-06
2.31517e-06
-2.19374e-06
2.23973e-06
-1.33629e-06
2.15544e-06
-7.30613e-07
2.07148e-06
-2.80145e-07
1.98997e-06
6.52274e-08
1.91093e-06
3.3352e-07
1.83391e-06
5.4247e-07
1.7584e-06
7.04189e-07
1.68412e-06
8.28257e-07
1.61088e-06
9.22334e-07
1.53865e-06
9.92591e-07
1.4674e-06
1.04399e-06
1.39715e-06
1.08053e-06
1.32792e-06
1.10543e-06
1.25972e-06
1.12126e-06
1.19258e-06
1.1301e-06
1.12647e-06
1.13363e-06
1.06142e-06
1.13322e-06
9.97411e-07
1.12994e-06
9.34418e-07
1.12471e-06
8.72461e-07
1.11826e-06
8.11498e-07
1.1112e-06
7.5159e-07
1.10412e-06
6.92708e-07
1.09754e-06
6.34871e-07
1.0922e-06
5.78001e-07
1.0892e-06
5.21807e-07
1.09053e-06
4.65785e-07
1.09964e-06
4.08773e-07
1.122e-06
3.49009e-07
1.16594e-06
2.83358e-07
1.24238e-06
2.07054e-07
1.36356e-06
1.13352e-07
1.531e-06
1.63788e-06
1.17469e-06
-1.0613e-05
2.2249e-06
-9.36333e-06
2.55286e-06
-5.81916e-06
2.55797e-06
-3.47933e-06
2.46599e-06
-2.10178e-06
2.35214e-06
-1.22245e-06
2.239e-06
-6.17489e-07
2.133e-06
-1.74164e-07
2.03457e-06
1.63649e-07
1.94248e-06
4.25599e-07
1.8554e-06
6.29544e-07
1.77214e-06
7.87442e-07
1.69188e-06
9.08512e-07
1.61408e-06
1.00014e-06
1.53838e-06
1.06831e-06
1.46451e-06
1.11787e-06
1.3923e-06
1.15275e-06
1.32166e-06
1.1761e-06
1.25246e-06
1.19047e-06
1.18465e-06
1.19792e-06
1.11816e-06
1.20012e-06
1.05295e-06
1.19844e-06
9.88966e-07
1.19393e-06
9.26146e-07
1.18752e-06
8.64478e-07
1.17993e-06
8.03896e-07
1.17177e-06
7.44407e-07
1.16362e-06
6.85939e-07
1.156e-06
6.28415e-07
1.14972e-06
5.71643e-07
1.14599e-06
5.15175e-07
1.14699e-06
4.58331e-07
1.15651e-06