/*--------------------------------*- C++ -*----------------------------------*\
  =========                 |
  \\      /  F ield         | OpenFOAM: The Open Source CFD Toolbox
   \\    /   O peration     | Website:  https://openfoam.org
    \\  /    A nd           | Version:  7
     \\/     M anipulation  |
\*---------------------------------------------------------------------------*/
FoamFile
{
    version     2.0;
    format      ascii;
    class       volVectorField;
    location    "0.05";
    object      U;
}
// * * * * * * * * * * * * * * * * * * * * * * * * * * * * * * * * * * * * * //

dimensions      [0 1 -1 0 0 0 0];

internalField   nonuniform List<vector> 
9072
(
(0.00465648 -0.00338819 0)
(0.0206273 -0.00656293 0)
(0.0446813 -0.00806477 0)
(0.0704503 -0.00830913 0)
(0.0959654 -0.00801642 0)
(0.120451 -0.00761161 0)
(0.143879 -0.007279 0)
(0.166562 -0.00707523 0)
(0.188898 -0.00700295 0)
(0.211262 -0.00704656 0)
(0.233986 -0.00719006 0)
(0.257364 -0.00742118 0)
(0.281664 -0.00773403 0)
(0.307153 -0.0081297 0)
(0.334113 -0.00861646 0)
(0.362881 -0.00921374 0)
(0.393862 -0.00995542 0)
(0.427682 -0.0108881 0)
(0.464835 -0.012142 0)
(0.507552 -0.0137652 0)
(0.554295 -0.0160358 0)
(0.611451 -0.0201024 0)
(0.677066 -0.0222166 0)
(0.730372 -0.0152914 0)
(0.751048 -0.00244301 0)
(0.750494 -0.00496975 0)
(0.76189 -0.0326106 0)
(0.790657 -0.076031 0)
(0.816294 -0.10117 0)
(0.781321 -0.0654486 0)
(0.718157 -0.0188538 0)
(0.630671 0.0191658 0)
(0.563068 0.0264971 0)
(0.513812 0.0224552 0)
(0.473436 0.0141142 0)
(0.436485 0.0123356 0)
(0.400525 0.0119616 0)
(0.364679 0.0120129 0)
(0.328547 0.0123085 0)
(0.290891 0.0129967 0)
(0.250723 0.0140298 0)
(0.207031 0.015346 0)
(0.159116 0.0166682 0)
(0.107641 0.0171984 0)
(0.0555126 0.01541 0)
(0.0182145 0.0103201 0)
(0.0080414 -0.00854867 0)
(0.0265199 -0.0155472 0)
(0.049402 -0.0182972 0)
(0.0726391 -0.0186472 0)
(0.0952331 -0.0180405 0)
(0.116972 -0.0172455 0)
(0.13797 -0.0166028 0)
(0.15849 -0.0162235 0)
(0.178835 -0.0161186 0)
(0.199293 -0.0162622 0)
(0.220126 -0.0166258 0)
(0.241571 -0.0171884 0)
(0.263858 -0.0179403 0)
(0.287217 -0.0188861 0)
(0.311898 -0.0200493 0)
(0.338196 -0.0214773 0)
(0.366465 -0.0232504 0)
(0.397229 -0.0254899 0)
(0.430991 -0.0284595 0)
(0.469225 -0.032297 0)
(0.511731 -0.0376224 0)
(0.561144 -0.0444087 0)
(0.616092 -0.0462677 0)
(0.662362 -0.0328003 0)
(0.692976 -0.0075699 0)
(0.720156 0.00690336 0)
(0.739284 0.0063758 0)
(0.71117 0.0209358 0)
(0.712557 0.0532404 0)
(0.746927 0.0646747 0)
(0.701954 0.073081 0)
(0.627272 0.0566347 0)
(0.564242 0.0393612 0)
(0.514432 0.0301529 0)
(0.472136 0.0272279 0)
(0.433638 0.0259059 0)
(0.397403 0.0253741 0)
(0.362296 0.0253662 0)
(0.327287 0.0258964 0)
(0.291213 0.0272298 0)
(0.253154 0.0293497 0)
(0.212003 0.0321043 0)
(0.166844 0.034983 0)
(0.117585 0.0365703 0)
(0.06613 0.0338161 0)
(0.0224535 0.0241914 0)
(0.0107921 -0.0170462 0)
(0.0304822 -0.0252805 0)
(0.0514591 -0.0280133 0)
(0.0717081 -0.0280995 0)
(0.0910876 -0.0271666 0)
(0.109799 -0.0260945 0)
(0.128065 -0.0252696 0)
(0.146114 -0.0248167 0)
(0.164175 -0.0247463 0)
(0.182455 -0.0250259 0)
(0.201149 -0.0256215 0)
(0.220441 -0.0265086 0)
(0.240516 -0.0276785 0)
(0.26157 -0.0291421 0)
(0.283818 -0.0309359 0)
(0.307517 -0.0331311 0)
(0.332972 -0.0358455 0)
(0.360623 -0.0392638 0)
(0.390916 -0.0437145 0)
(0.424898 -0.0494684 0)
(0.462653 -0.0570277 0)
(0.505149 -0.0656187 0)
(0.551882 -0.0681196 0)
(0.590882 -0.0528983 0)
(0.624775 -0.0234191 0)
(0.66295 -0.00132042 0)
(0.683424 0.00620936 0)
(0.619786 -0.0228928 0)
(0.584389 -0.0211385 0)
(0.584092 0.0327384 0)
(0.561752 0.0703517 0)
(0.530019 0.0748809 0)
(0.497742 0.0629646 0)
(0.463152 0.0520787 0)
(0.427908 0.0460218 0)
(0.394288 0.0430073 0)
(0.362053 0.041623 0)
(0.330791 0.0413275 0)
(0.299672 0.0420235 0)
(0.26781 0.0439523 0)
(0.234497 0.0471394 0)
(0.198803 0.0514136 0)
(0.159825 0.0560864 0)
(0.116896 0.0593216 0)
(0.0706821 0.0572426 0)
(0.025804 0.0468481 0)
(0.0126121 -0.0271371 0)
(0.0327925 -0.0352201 0)
(0.0519195 -0.0371674 0)
(0.0694938 -0.0367115 0)
(0.0860198 -0.0354136 0)
(0.102 -0.0341209 0)
(0.117751 -0.0331959 0)
(0.133493 -0.0327433 0)
(0.149405 -0.0327607 0)
(0.165636 -0.0332077 0)
(0.182324 -0.0340466 0)
(0.199608 -0.0352529 0)
(0.217636 -0.0368216 0)
(0.236567 -0.0387715 0)
(0.256584 -0.041152 0)
(0.277902 -0.0440553 0)
(0.30078 -0.0476308 0)
(0.325569 -0.0521102 0)
(0.352622 -0.0578702 0)
(0.382655 -0.0652514 0)
(0.415696 -0.0746143 0)
(0.452017 -0.084627 0)
(0.491666 -0.0877145 0)
(0.523462 -0.0720188 0)
(0.558716 -0.0389941 0)
(0.599092 -0.00535521 0)
(0.603529 0.0267315 0)
(0.54306 -0.00377994 0)
(0.518219 0.0013092 0)
(0.498034 0.0413732 0)
(0.476078 0.0790026 0)
(0.458785 0.0859247 0)
(0.438023 0.0768411 0)
(0.410865 0.0672924 0)
(0.381487 0.0611844 0)
(0.352706 0.0575457 0)
(0.32469 0.0557052 0)
(0.297429 0.0551996 0)
(0.270395 0.0559888 0)
(0.242933 0.0583453 0)
(0.214497 0.0623389 0)
(0.18428 0.0678248 0)
(0.151328 0.0741064 0)
(0.114444 0.0792491 0)
(0.0732155 0.0791322 0)
(0.0287385 0.0696349 0)
(0.0135364 -0.0378327 0)
(0.0336846 -0.044775 0)
(0.0511952 -0.0453798 0)
(0.0665748 -0.0441883 0)
(0.0807544 -0.042515 0)
(0.0944428 -0.0410638 0)
(0.108034 -0.0401181 0)
(0.121756 -0.039737 0)
(0.135761 -0.0398943 0)
(0.150158 -0.0405394 0)
(0.165048 -0.0416323 0)
(0.180532 -0.0431508 0)
(0.196722 -0.0450959 0)
(0.21375 -0.0474952 0)
(0.231765 -0.0504099 0)
(0.250941 -0.0539485 0)
(0.271484 -0.058283 0)
(0.293659 -0.0636746 0)
(0.317705 -0.0705207 0)
(0.34406 -0.079182 0)
(0.372591 -0.0898585 0)
(0.403301 -0.100844 0)
(0.436402 -0.104516 0)
(0.461589 -0.0892704 0)
(0.496161 -0.0536326 0)
(0.530947 -0.00542431 0)
(0.517261 0.0303767 0)
(0.493731 0.00716436 0)
(0.471367 0.0193611 0)
(0.440537 0.0573456 0)
(0.418128 0.0869908 0)
(0.404378 0.0934369 0)
(0.386908 0.0871068 0)
(0.364054 0.0793818 0)
(0.33913 0.0737872 0)
(0.314432 0.0699679 0)
(0.290208 0.0677885 0)
(0.266626 0.0670837 0)
(0.243382 0.0678822 0)
(0.219992 0.0704781 0)
(0.196007 0.0750204 0)
(0.170695 0.0814559 0)
(0.143016 0.0892114 0)
(0.111327 0.0965201 0)
(0.0743844 0.0994849 0)
(0.0308476 0.0932777 0)
(0.0137608 -0.0487174 0)
(0.0334823 -0.0538613 0)
(0.0496192 -0.0527592 0)
(0.06327 -0.0506879 0)
(0.0756044 -0.0486191 0)
(0.087456 -0.0470431 0)
(0.0992749 -0.0461265 0)
(0.111302 -0.0458641 0)
(0.123678 -0.046197 0)
(0.136491 -0.0470608 0)
(0.149815 -0.0484129 0)
(0.163723 -0.0502343 0)
(0.178303 -0.0525322 0)
(0.193656 -0.0553429 0)
(0.209902 -0.0587373 0)
(0.227179 -0.0628346 0)
(0.245639 -0.0678196 0)
(0.265461 -0.073964 0)
(0.286772 -0.0816584 0)
(0.309776 -0.091243 0)
(0.334171 -0.102765 0)
(0.359842 -0.114314 0)
(0.386922 -0.118528 0)
(0.406701 -0.104171 0)
(0.438271 -0.0669345 0)
(0.464605 -0.00102583 0)
(0.470461 0.0214286 0)
(0.464318 0.0167479 0)
(0.433835 0.0359955 0)
(0.398065 0.0705382 0)
(0.375513 0.0948668 0)
(0.360727 0.100518 0)
(0.343966 0.0961399 0)
(0.323841 0.0898405 0)
(0.302283 0.0846436 0)
(0.280919 0.0806934 0)
(0.259971 0.0782271 0)
(0.23963 0.0773042 0)
(0.219726 0.0780279 0)
(0.199908 0.0807185 0)
(0.179785 0.0856267 0)
(0.158653 0.0928517 0)
(0.135377 0.102043 0)
(0.107958 0.111784 0)
(0.0745236 0.118703 0)
(0.0320829 0.117599 0)
(0.0134863 -0.0594527 0)
(0.0324805 -0.0624695 0)
(0.0474554 -0.0594822 0)
(0.0597811 -0.0564408 0)
(0.0707157 -0.053952 0)
(0.0811497 -0.0522602 0)
(0.091566 -0.0513943 0)
(0.102218 -0.0512738 0)
(0.113244 -0.0518 0)
(0.124723 -0.052892 0)
(0.136713 -0.0545024 0)
(0.149269 -0.0566147 0)
(0.162459 -0.059242 0)
(0.176362 -0.0624279 0)
(0.191069 -0.0662503 0)
(0.206683 -0.0708342 0)
(0.223311 -0.0763669 0)
(0.241053 -0.0831138 0)
(0.259933 -0.091436 0)
(0.279972 -0.101624 0)
(0.300721 -0.113594 0)
(0.322006 -0.125363 0)
(0.343851 -0.130022 0)
(0.359364 -0.11692 0)
(0.387486 -0.0791096 0)
(0.408609 -0.00684174 0)
(0.456021 0.0172579 0)
(0.440985 0.0265742 0)
(0.401135 0.0528939 0)
(0.364897 0.0845812 0)
(0.341577 0.103628 0)
(0.325012 0.108003 0)
(0.308303 0.104641 0)
(0.290026 0.0991194 0)
(0.271054 0.0940895 0)
(0.252395 0.090004 0)
(0.23421 0.0872685 0)
(0.216645 0.086093 0)
(0.199604 0.0866642 0)
(0.182826 0.0893455 0)
(0.165952 0.0945005 0)
(0.148285 0.102416 0)
(0.128597 0.113041 0)
(0.104617 0.125441 0)
(0.0739927 0.136937 0)
(0.0326398 0.142096 0)
(0.012879 -0.0697891 0)
(0.0309255 -0.0705881 0)
(0.0449122 -0.0656897 0)
(0.0562495 -0.0616419 0)
(0.0661662 -0.0587126 0)
(0.075552 -0.0568982 0)
(0.0849004 -0.0560837 0)
(0.0944728 -0.0561084 0)
(0.104412 -0.0568305 0)
(0.114794 -0.0581494 0)
(0.125671 -0.0600109 0)
(0.137089 -0.0623995 0)
(0.149098 -0.0653326 0)
(0.161761 -0.0688595 0)
(0.175147 -0.0730622 0)
(0.189327 -0.0780664 0)
(0.204368 -0.0840537 0)
(0.220307 -0.0912701 0)
(0.237082 -0.10003 0)
(0.254576 -0.110556 0)
(0.272243 -0.122657 0)
(0.289872 -0.13438 0)
(0.307531 -0.139447 0)
(0.319813 -0.127988 0)
(0.345619 -0.0907366 0)
(0.369225 -0.024423 0)
(0.446641 0.0117955 0)
(0.417208 0.0382346 0)
(0.372374 0.0709444 0)
(0.337781 0.0988345 0)
(0.313596 0.113141 0)
(0.295667 0.115959 0)
(0.278942 0.112744 0)
(0.262027 0.10749 0)
(0.245068 0.10242 0)
(0.228603 0.0981435 0)
(0.212712 0.095123 0)
(0.197482 0.0936607 0)
(0.182848 0.0940199 0)
(0.168604 0.0966187 0)
(0.154412 0.101941 0)
(0.13957 0.110486 0)
(0.12278 0.122557 0)
(0.101563 0.137798 0)
(0.0732122 0.154307 0)
(0.0328295 0.16651 0)
(0.0120594 -0.079561 0)
(0.0290103 -0.0782105 0)
(0.0421547 -0.0714905 0)
(0.0527838 -0.0664481 0)
(0.0620059 -0.0630664 0)
(0.0706636 -0.0611134 0)
(0.07924 -0.060336 0)
(0.0880002 -0.0604942 0)
(0.0970921 -0.0614021 0)
(0.106598 -0.0629375 0)
(0.116568 -0.0650373 0)
(0.127045 -0.0676849 0)
(0.13807 -0.0709001 0)
(0.149691 -0.0747356 0)
(0.161959 -0.0792753 0)
(0.174923 -0.0846408 0)
(0.188614 -0.0910021 0)
(0.203021 -0.0985762 0)
(0.218022 -0.107619 0)
(0.233409 -0.11828 0)
(0.248582 -0.130282 0)
(0.263329 -0.14178 0)
(0.277885 -0.147268 0)
(0.287895 -0.137971 0)
(0.312414 -0.103538 0)
(0.34107 -0.0467793 0)
(0.43401 0.00595834 0)
(0.39169 0.0512279 0)
(0.347772 0.0890621 0)
(0.31498 0.112902 0)
(0.290338 0.123158 0)
(0.271612 0.124182 0)
(0.255008 0.120541 0)
(0.23916 0.115156 0)
(0.223798 0.109866 0)
(0.209113 0.105321 0)
(0.19511 0.101986 0)
(0.18182 0.100208 0)
(0.169181 0.100312 0)
(0.15702 0.102777 0)
(0.145013 0.108211 0)
(0.132459 0.117342 0)
(0.118024 0.130871 0)
(0.0990697 0.149094 0)
(0.07264 0.170931 0)
(0.0329967 0.190824 0)
(0.011106 -0.0886637 0)
(0.0268797 -0.0853429 0)
(0.0393173 -0.0769756 0)
(0.0494767 -0.0709905 0)
(0.0582803 -0.0671541 0)
(0.0664864 -0.0650416 0)
(0.0745508 -0.0642762 0)
(0.0827371 -0.0645445 0)
(0.0912002 -0.0656183 0)
(0.100031 -0.0673526 0)
(0.109285 -0.0696731 0)
(0.119004 -0.0725601 0)
(0.129226 -0.0760337 0)
(0.13999 -0.0801478 0)
(0.151333 -0.0849856 0)
(0.163285 -0.0906618 0)
(0.175854 -0.0973299 0)
(0.188994 -0.105173 0)
(0.202548 -0.114385 0)
(0.216256 -0.125038 0)
(0.229515 -0.136797 0)
(0.242137 -0.147976 0)
(0.25457 -0.153949 0)
(0.263117 -0.147374 0)
(0.286838 -0.118108 0)
(0.320036 -0.0715906 0)
(0.417743 0.000600065 0)
(0.367319 0.0651285 0)
(0.326791 0.106494 0)
(0.29577 0.126619 0)
(0.271114 0.133354 0)
(0.252105 0.132509 0)
(0.235764 0.128056 0)
(0.220802 0.122259 0)
(0.206729 0.1166 0)
(0.193495 0.111712 0)
(0.181038 0.10803 0)
(0.16934 0.105914 0)
(0.158336 0.105735 0)
(0.147869 0.108031 0)
(0.13763 0.113535 0)
(0.126938 0.123213 0)
(0.114458 0.138193 0)
(0.0974409 0.159492 0)
(0.0727863 0.186904 0)
(0.0335076 0.215227 0)
(0.010065 -0.097035 0)
(0.0246449 -0.0920081 0)
(0.0365185 -0.0822283 0)
(0.0464211 -0.0753825 0)
(0.0550465 -0.0710972 0)
(0.0630419 -0.0688011 0)
(0.0708233 -0.0680148 0)
(0.0786487 -0.0683616 0)
(0.0866808 -0.0695737 0)
(0.0950213 -0.0714832 0)
(0.103736 -0.0740034 0)
(0.11287 -0.0771087 0)
(0.122462 -0.0808175 0)
(0.132543 -0.0851824 0)
(0.143144 -0.0902842 0)
(0.15428 -0.0962288 0)
(0.165942 -0.103151 0)
(0.17807 -0.111198 0)
(0.190488 -0.120502 0)
(0.202924 -0.131063 0)
(0.214812 -0.142509 0)
(0.226003 -0.153351 0)
(0.237122 -0.159879 0)
(0.244842 -0.156408 0)
(0.267682 -0.13395 0)
(0.30326 -0.0966513 0)
(0.399551 -0.00391623 0)
(0.345658 0.0789654 0)
(0.309171 0.122934 0)
(0.279818 0.139847 0)
(0.255542 0.14353 0)
(0.236621 0.140796 0)
(0.220661 0.1353 0)
(0.206467 0.128892 0)
(0.193448 0.122757 0)
(0.181399 0.117462 0)
(0.170201 0.113405 0)
(0.159798 0.110934 0)
(0.150118 0.110452 0)
(0.141019 0.112553 0)
(0.132211 0.11809 0)
(0.123056 0.128265 0)
(0.112273 0.144655 0)
(0.0970447 0.169069 0)
(0.0742759 0.202283 0)
(0.0347904 0.240151 0)
(0.00896131 -0.104647 0)
(0.0224045 -0.0982549 0)
(0.0338798 -0.0873362 0)
(0.0437255 -0.0797307 0)
(0.0523868 -0.0750069 0)
(0.0603842 -0.0725 0)
(0.0680863 -0.0716542 0)
(0.0757433 -0.072041 0)
(0.0835259 -0.0733583 0)
(0.0915493 -0.0754153 0)
(0.0998909 -0.0781115 0)
(0.108605 -0.0814133 0)
(0.11773 -0.0853348 0)
(0.127298 -0.0899258 0)
(0.137332 -0.0952626 0)
(0.147841 -0.101442 0)
(0.158807 -0.108578 0)
(0.170164 -0.116785 0)
(0.181742 -0.126139 0)
(0.193282 -0.136576 0)
(0.204283 -0.147703 0)
(0.214646 -0.158237 0)
(0.225082 -0.165366 0)
(0.232424 -0.165128 0)
(0.254141 -0.14995 0)
(0.289081 -0.120688 0)
(0.380487 -0.00784896 0)
(0.327177 0.0920831 0)
(0.294713 0.138268 0)
(0.267002 0.152536 0)
(0.243422 0.153537 0)
(0.224847 0.14895 0)
(0.209351 0.142284 0)
(0.19584 0.135135 0)
(0.183688 0.128445 0)
(0.172603 0.1227 0)
(0.162421 0.118245 0)
(0.153059 0.115408 0)
(0.144441 0.11461 0)
(0.136438 0.116492 0)
(0.128796 0.122018 0)
(0.12095 0.132616 0)
(0.111741 0.150321 0)
(0.0983502 0.177804 0)
(0.0779613 0.217051 0)
(0.0374253 0.266349 0)
(0.00781711 -0.111496 0)
(0.0202718 -0.104155 0)
(0.0315444 -0.0923897 0)
(0.0415253 -0.0841328 0)
(0.0504154 -0.078982 0)
(0.0586045 -0.0762343 0)
(0.0664106 -0.0752861 0)
(0.0740752 -0.0756703 0)
(0.0817778 -0.0770556 0)
(0.0896483 -0.0792296 0)
(0.0977782 -0.0820766 0)
(0.106232 -0.0855527 0)
(0.115052 -0.0896657 0)
(0.124273 -0.0944605 0)
(0.133915 -0.100008 0)
(0.143983 -0.106395 0)
(0.154458 -0.113718 0)
(0.165277 -0.12206 0)
(0.176287 -0.13145 0)
(0.187267 -0.141769 0)
(0.197798 -0.152617 0)
(0.207832 -0.162901 0)
(0.21804 -0.17061 0)
(0.225229 -0.17349 0)
(0.2454 -0.16543 0)
(0.277201 -0.14255 0)
(0.360686 -0.011364 0)
(0.311692 0.103986 0)
(0.283251 0.15239 0)
(0.257349 0.164603 0)
(0.234734 0.163259 0)
(0.216688 0.156896 0)
(0.2017 0.149011 0)
(0.188793 0.141046 0)
(0.177351 0.133755 0)
(0.167035 0.127529 0)
(0.157657 0.12266 0)
(0.149115 0.119451 0)
(0.141333 0.118326 0)
(0.134204 0.119963 0)
(0.127528 0.125421 0)
(0.120852 0.136328 0)
(0.113228 0.155169 0)
(0.101956 0.185538 0)
(0.0850805 0.231109 0)
(0.0423218 0.295079 0)
(0.00672297 -0.117588 0)
(0.0184225 -0.109761 0)
(0.0297066 -0.0974296 0)
(0.0400023 -0.0886256 0)
(0.0492912 -0.0830594 0)
(0.0578384 -0.0800414 0)
(0.0659131 -0.0789476 0)
(0.0737478 -0.0792856 0)
(0.0815312 -0.0807006 0)
(0.0894083 -0.0829602 0)
(0.0974856 -0.0859319 0)
(0.105839 -0.0895601 0)
(0.114519 -0.0938441 0)
(0.123561 -0.0988222 0)
(0.132987 -0.104559 0)
(0.142802 -0.111132 0)
(0.152989 -0.118621 0)
(0.163494 -0.127085 0)
(0.174192 -0.136512 0)
(0.184904 -0.146745 0)
(0.195307 -0.15738 0)
(0.205391 -0.167473 0)
(0.215666 -0.175638 0)
(0.222741 -0.181071 0)
(0.240449 -0.178742 0)
(0.264698 -0.161733 0)
(0.339204 -0.0149032 0)
(0.298536 0.114216 0)
(0.274652 0.165061 0)
(0.250991 0.175862 0)
(0.229634 0.172529 0)
(0.212261 0.164511 0)
(0.197798 0.155416 0)
(0.185411 0.146607 0)
(0.174527 0.138691 0)
(0.1648 0.131973 0)
(0.156029 0.126682 0)
(0.148108 0.123094 0)
(0.140967 0.12163 0)
(0.134532 0.122989 0)
(0.128676 0.128296 0)
(0.123113 0.139342 0)
(0.117212 0.15901 0)
(0.108622 0.191864 0)
(0.0974046 0.244383 0)
(0.0509289 0.328487 0)
(0.00593361 -0.123067 0)
(0.0171636 -0.115218 0)
(0.0286512 -0.102544 0)
(0.0394157 -0.0932676 0)
(0.0492477 -0.0872839 0)
(0.0582985 -0.0839605 0)
(0.066792 -0.0826758 0)
(0.0749514 -0.0829236 0)
(0.0829732 -0.08433 0)
(0.0910171 -0.0866434 0)
(0.0992047 -0.0897142 0)
(0.107624 -0.0934728 0)
(0.116334 -0.0979082 0)
(0.125374 -0.103051 0)
(0.13477 -0.108957 0)
(0.144527 -0.115697 0)
(0.154632 -0.123337 0)
(0.165044 -0.131914 0)
(0.175667 -0.141389 0)
(0.186367 -0.151576 0)
(0.196908 -0.162068 0)
(0.207318 -0.172012 0)
(0.217809 -0.180416 0)
(0.224676 -0.187564 0)
(0.239525 -0.188933 0)
(0.256349 -0.177893 0)
(0.317031 -0.0191315 0)
(0.287515 0.122153 0)
(0.269155 0.175939 0)
(0.24837 0.186044 0)
(0.228577 0.181137 0)
(0.21198 0.171643 0)
(0.198016 0.161404 0)
(0.186037 0.151765 0)
(0.175544 0.143228 0)
(0.166215 0.136016 0)
(0.157857 0.130303 0)
(0.150363 0.126329 0)
(0.143683 0.124504 0)
(0.13779 0.12553 0)
(0.132658 0.130563 0)
(0.128223 0.141488 0)
(0.124309 0.161466 0)
(0.119306 0.195984 0)
(0.117061 0.256558 0)
(0.0643021 0.370021 0)
(0.00572588 -0.128206 0)
(0.0168326 -0.120754 0)
(0.0286553 -0.107973 0)
(0.0399824 -0.0983107 0)
(0.0504582 -0.0919141 0)
(0.0601309 -0.0882537 0)
(0.0691785 -0.0867352 0)
(0.0778109 -0.0868503 0)
(0.0862284 -0.0882119 0)
(0.094602 -0.0905509 0)
(0.103067 -0.0937001 0)
(0.111722 -0.0975742 0)
(0.120638 -0.10215 0)
(0.129858 -0.107449 0)
(0.139411 -0.113519 0)
(0.149306 -0.120423 0)
(0.159535 -0.128215 0)
(0.170066 -0.136917 0)
(0.180828 -0.146472 0)
(0.191724 -0.156673 0)
(0.202597 -0.167108 0)
(0.21352 -0.176959 0)
(0.224177 -0.185438 0)
(0.230646 -0.193475 0)
(0.243071 -0.196749 0)
(0.254949 -0.190245 0)
(0.296256 -0.0239855 0)
(0.279578 0.126416 0)
(0.267545 0.184488 0)
(0.250316 0.195203 0)
(0.232301 0.189369 0)
(0.216458 0.178685 0)
(0.202856 0.167413 0)
(0.191094 0.156972 0)
(0.180776 0.147816 0)
(0.171624 0.140101 0)
(0.16346 0.13395 0)
(0.156189 0.12957 0)
(0.149788 0.127346 0)
(0.144291 0.12796 0)
(0.139808 0.132544 0)
(0.136569 0.142957 0)
(0.13503 0.162371 0)
(0.13513 0.196683 0)
(0.144337 0.262316 0)
(0.0918283 0.430739 0)
(0.0058433 -0.00297632 0)
(0.0184086 -0.00460782 0)
(0.0346413 -0.00482461 0)
(0.0494081 -0.00421552 0)
(0.0613066 -0.00327191 0)
(0.0701283 -0.00236604 0)
(0.0762639 -0.0015939 0)
(0.0801796 -0.000969268 0)
(0.0823738 -0.000487295 0)
(0.0832392 -0.000109695 0)
(0.0830561 0.00018096 0)
(0.0820928 0.000398695 0)
(0.0805342 0.000563994 0)
(0.0785218 0.000688862 0)
(0.0761641 0.000784139 0)
(0.0735441 0.000856395 0)
(0.0707265 0.000909557 0)
(0.067762 0.000949355 0)
(0.0646908 0.000977395 0)
(0.061547 0.000995096 0)
(0.0583549 0.0010072 0)
(0.0551349 0.00101363 0)
(0.0519011 0.00101773 0)
(0.048664 0.00101778 0)
(0.0454321 0.00101622 0)
(0.0422078 0.00101454 0)
(0.0389932 0.00101259 0)
(0.0357817 0.00101375 0)
(0.0325663 0.00101697 0)
(0.0293294 0.00102768 0)
(0.0260439 0.00104812 0)
(0.0226739 0.00108201 0)
(0.0191651 0.00113359 0)
(0.0154708 0.00119478 0)
(0.0115681 0.0012458 0)
(0.00753966 0.00122112 0)
(0.00372315 0.00100705 0)
(0.00102689 0.000538622 0)
(0.00696546 -0.00698387 0)
(0.0210872 -0.00986328 0)
(0.0365734 -0.00985609 0)
(0.0501465 -0.008431 0)
(0.0608324 -0.00649911 0)
(0.0687771 -0.00467009 0)
(0.0743174 -0.00313397 0)
(0.077823 -0.0018957 0)
(0.07978 -0.000938822 0)
(0.0804908 -0.000198142 0)
(0.0802663 0.000372236 0)
(0.0793142 0.000805343 0)
(0.0777954 0.00113696 0)
(0.0758478 0.00138832 0)
(0.0735717 0.00157943 0)
(0.0710507 0.00172438 0)
(0.0683466 0.00183126 0)
(0.0655095 0.00191007 0)
(0.0625787 0.00196603 0)
(0.0595837 0.00200261 0)
(0.0565457 0.00202649 0)
(0.0534836 0.00203895 0)
(0.0504098 0.00204497 0)
(0.0473325 0.0020446 0)
(0.0442578 0.00204085 0)
(0.041187 0.00203688 0)
(0.0381224 0.00203292 0)
(0.0350579 0.00203469 0)
(0.0319868 0.00204288 0)
(0.0288936 0.00206511 0)
(0.0257553 0.00210785 0)
(0.0225433 0.00217694 0)
(0.0192129 0.00228058 0)
(0.0157265 0.0024078 0)
(0.0120542 0.00252345 0)
(0.0082242 0.00251864 0)
(0.00442351 0.00219102 0)
(0.00133676 0.0014178 0)
(0.00836415 -0.0134784 0)
(0.0232848 -0.0166228 0)
(0.0374905 -0.0157634 0)
(0.0492951 -0.0132498 0)
(0.0583245 -0.0101645 0)
(0.0649583 -0.00731154 0)
(0.0695745 -0.00490443 0)
(0.0724511 -0.00295657 0)
(0.0740152 -0.00144273 0)
(0.0744988 -0.000265977 0)
(0.0741622 0.000639725 0)
(0.0731905 0.00133258 0)
(0.0717228 0.0018641 0)
(0.0698815 0.00226718 0)
(0.0677536 0.00257308 0)
(0.0654134 0.00280341 0)
(0.0629152 0.00297356 0)
(0.0603031 0.00309753 0)
(0.0576121 0.00318495 0)
(0.0548674 0.00324245 0)
(0.0520872 0.00327894 0)
(0.0492878 0.00329849 0)
(0.04648 0.00330665 0)
(0.0436709 0.00330625 0)
(0.0408653 0.00330033 0)
(0.0380644 0.0032938 0)
(0.03527 0.00328846 0)
(0.0324774 0.00329064 0)
(0.0296814 0.00330456 0)
(0.0268707 0.00333834 0)
(0.0240285 0.00340298 0)
(0.0211363 0.00350696 0)
(0.0181625 0.00366063 0)
(0.0150783 0.00385401 0)
(0.0118475 0.00404294 0)
(0.00844302 0.00409745 0)
(0.00491454 0.00374807 0)
(0.00164511 0.00270675 0)
(0.00961445 -0.0202464 0)
(0.0249008 -0.0230441 0)
(0.0378998 -0.020973 0)
(0.0480423 -0.0173101 0)
(0.0555005 -0.0131966 0)
(0.0608345 -0.00945703 0)
(0.0644968 -0.00632653 0)
(0.0667118 -0.00378673 0)
(0.0678471 -0.00180302 0)
(0.0680799 -0.000257654 0)
(0.0676198 0.000936167 0)
(0.0666243 0.00185086 0)
(0.0652083 0.0025535 0)
(0.0634761 0.00308672 0)
(0.0615017 0.00349086 0)
(0.0593478 0.00379433 0)
(0.0570615 0.00401785 0)
(0.0546806 0.00417959 0)
(0.0522352 0.00429318 0)
(0.0497464 0.00436811 0)
(0.0472297 0.00441472 0)
(0.0446988 0.00443938 0)
(0.0421632 0.00444858 0)
(0.0396287 0.0044471 0)
(0.0370994 0.00443872 0)
(0.0345764 0.00442919 0)
(0.0320615 0.00442173 0)
(0.0295514 0.00442298 0)
(0.0270431 0.00443934 0)
(0.02453 0.00447969 0)
(0.0220016 0.00455728 0)
(0.0194482 0.00468288 0)
(0.0168482 0.00486871 0)
(0.0141779 0.00510939 0)
(0.011393 0.00536263 0)
(0.00842217 0.00549903 0)
(0.00521854 0.00522561 0)
(0.0019001 0.00411833 0)
(0.0105398 -0.0276005 0)
(0.0260616 -0.0292417 0)
(0.038102 -0.0256022 0)
(0.0468431 -0.0207032 0)
(0.0529444 -0.0156323 0)
(0.057113 -0.0111336 0)
(0.0598892 -0.00740336 0)
(0.0614761 -0.00438414 0)
(0.0621904 -0.00201662 0)
(0.0621702 -0.000168359 0)
(0.0615799 0.0012636 0)
(0.0605496 0.00236299 0)
(0.059171 0.00320763 0)
(0.0575309 0.00384904 0)
(0.0556909 0.00433407 0)
(0.0537028 0.00469734 0)
(0.0516063 0.00496455 0)
(0.0494333 0.00515708 0)
(0.0472089 0.00529141 0)
(0.044951 0.00537964 0)
(0.0426723 0.00543357 0)
(0.0403844 0.00546146 0)
(0.0380953 0.00547071 0)
(0.0358099 0.00546738 0)
(0.0335318 0.00545606 0)
(0.031262 0.0054429 0)
(0.0290025 0.00543218 0)
(0.0267516 0.00543074 0)
(0.0245082 0.00544616 0)
(0.0222699 0.00548775 0)
(0.0200315 0.00556966 0)
(0.0177894 0.00570476 0)
(0.015529 0.0059081 0)
(0.0132282 0.00618198 0)
(0.0108349 0.00649509 0)
(0.00824635 0.00673532 0)
(0.00535056 0.00662192 0)
(0.0020651 0.00562694 0)
(0.0111503 -0.0353326 0)
(0.0269029 -0.0353186 0)
(0.0382914 -0.029801 0)
(0.0459093 -0.0235615 0)
(0.0508738 -0.0175697 0)
(0.0540309 -0.0124018 0)
(0.0560114 -0.00817255 0)
(0.0570209 -0.00476646 0)
(0.0573361 -0.00209012 0)
(0.0570676 2.3651e-06 0)
(0.0563416 0.00162761 0)
(0.055263 0.00287746 0)
(0.0539034 0.00383759 0)
(0.0523325 0.00456743 0)
(0.050601 0.00511859 0)
(0.0487506 0.00553043 0)
(0.0468138 0.0058327 0)
(0.0448173 0.00604951 0)
(0.0427815 0.00619975 0)
(0.0407213 0.0062977 0)
(0.0386471 0.00635649 0)
(0.0365685 0.00638584 0)
(0.0344923 0.00639394 0)
(0.0324224 0.00638778 0)
(0.030362 0.0063726 0)
(0.028312 0.00635483 0)
(0.0262747 0.00633948 0)
(0.0242498 0.00633341 0)
(0.0222377 0.00634468 0)
(0.0202392 0.00638262 0)
(0.018253 0.00646176 0)
(0.0162792 0.00659709 0)
(0.0143073 0.0068076 0)
(0.0123145 0.00710552 0)
(0.0102425 0.0074765 0)
(0.00796796 0.00783709 0)
(0.00533697 0.00794185 0)
(0.00213445 0.0071747 0)
(0.0115456 -0.0433058 0)
(0.0275959 -0.0413587 0)
(0.0386417 -0.0336911 0)
(0.0453832 -0.0259902 0)
(0.0493956 -0.0190861 0)
(0.0516759 -0.0133133 0)
(0.0529448 -0.00866572 0)
(0.0534259 -0.00494998 0)
(0.053365 -0.00202992 0)
(0.0528529 0.000254563 0)
(0.0519853 0.00203239 0)
(0.0508439 0.00340178 0)
(0.049483 0.00445363 0)
(0.047957 0.00525382 0)
(0.0463063 0.00585747 0)
(0.0445636 0.0063075 0)
(0.042755 0.00663682 0)
(0.040902 0.00687186 0)
(0.0390212 0.00703355 0)
(0.0371244 0.00713801 0)
(0.0352202 0.00719937 0)
(0.0333163 0.00722848 0)
(0.0314182 0.00723415 0)
(0.029529 0.00722407 0)
(0.0276515 0.00720407 0)
(0.0257866 0.00718075 0)
(0.0239366 0.00715956 0)
(0.0221023 0.00714713 0)
(0.0202854 0.0071515 0)
(0.0184886 0.00718193 0)
(0.0167129 0.00725315 0)
(0.0149603 0.00738248 0)
(0.0132219 0.00759363 0)
(0.0114732 0.00791027 0)
(0.00965187 0.0083384 0)
(0.00762323 0.0088299 0)
(0.00520982 0.00918705 0)
(0.00212446 0.00871337 0)
(0.0118362 -0.0514537 0)
(0.0283259 -0.0474652 0)
(0.0393307 -0.037378 0)
(0.0453884 -0.028071 0)
(0.0485803 -0.0202395 0)
(0.050083 -0.0139084 0)
(0.0507044 -0.00890799 0)
(0.0506946 -0.00494812 0)
(0.050275 -0.00184129 0)
(0.0495212 0.000588989 0)
(0.048504 0.00248272 0)
(0.0472841 0.00394348 0)
(0.045901 0.00506543 0)
(0.0443952 0.00591928 0)
(0.0427977 0.00656271 0)
(0.0411331 0.00704117 0)
(0.0394217 0.00739014 0)
(0.0376803 0.0076379 0)
(0.0359218 0.00780697 0)
(0.0341554 0.00791486 0)
(0.032388 0.00797649 0)
(0.0306254 0.00800361 0)
(0.0288719 0.00800555 0)
(0.0271301 0.0079905 0)
(0.025402 0.00796482 0)
(0.0236888 0.00793509 0)
(0.0219925 0.00790694 0)
(0.0203146 0.00788666 0)
(0.0186574 0.0078821 0)
(0.0170248 0.00790237 0)
(0.0154187 0.00796249 0)
(0.0138412 0.00808228 0)
(0.0122832 0.00829076 0)
(0.0107186 0.00862371 0)
(0.00908298 0.00910902 0)
(0.00723857 0.00973655 0)
(0.00500023 0.0103605 0)
(0.00205718 0.0102076 0)
(0.012107 -0.0597661 0)
(0.0292889 -0.0537722 0)
(0.0405569 -0.0409534 0)
(0.0460564 -0.0298604 0)
(0.0484961 -0.0210681 0)
(0.0492772 -0.0142142 0)
(0.049289 -0.00891681 0)
(0.0488101 -0.00477 0)
(0.0480399 -0.00152703 0)
(0.0470408 0.00100774 0)
(0.0458626 0.00298411 0)
(0.0445468 0.00451045 0)
(0.0431198 0.00568262 0)
(0.0416094 0.00657462 0)
(0.0400379 0.00724597 0)
(0.0384227 0.00774384 0)
(0.0367787 0.00810557 0)
(0.0351184 0.00836085 0)
(0.0334512 0.00853336 0)
(0.0317841 0.00864167 0)
(0.0301221 0.00870129 0)
(0.0284693 0.00872467 0)
(0.0268292 0.0087216 0)
(0.0252035 0.0087006 0)
(0.0235937 0.00866837 0)
(0.0220008 0.00863139 0)
(0.0204267 0.00859531 0)
(0.018873 0.00856607 0)
(0.0173422 0.00855129 0)
(0.0158383 0.00855998 0)
(0.0143631 0.00860755 0)
(0.0129174 0.00871659 0)
(0.0114909 0.00892178 0)
(0.0100561 0.00927091 0)
(0.00854844 0.0098136 0)
(0.00683429 0.0105772 0)
(0.00473483 0.011466 0)
(0.00195157 0.0116332 0)
(0.0124184 -0.0683442 0)
(0.0307156 -0.0604607 0)
(0.0425622 -0.0444929 0)
(0.0475432 -0.0313848 0)
(0.0492266 -0.0215864 0)
(0.0492948 -0.0142426 0)
(0.0487057 -0.00870006 0)
(0.0477613 -0.00441885 0)
(0.0466375 -0.00108622 0)
(0.0453828 0.00151512 0)
(0.0440278 0.00354347 0)
(0.0425961 0.00511138 0)
(0.0411019 0.00631526 0)
(0.0395616 0.00723092 0)
(0.037989 0.007919 0)
(0.0363951 0.00842777 0)
(0.0347896 0.00879572 0)
(0.0331809 0.00905351 0)
(0.0315756 0.00922561 0)
(0.0299781 0.00933138 0)
(0.0283917 0.00938675 0)
(0.0268193 0.00940465 0)
(0.025263 0.00939527 0)
(0.023724 0.00936729 0)
(0.0222032 0.00932758 0)
(0.0207013 0.00928253 0)
(0.0192197 0.00923776 0)
(0.0177601 0.00919889 0)
(0.0163246 0.00917327 0)
(0.0149164 0.00916998 0)
(0.0135361 0.00920509 0)
(0.0121824 0.00930417 0)
(0.0108431 0.00950763 0)
(0.00948915 0.00987449 0)
(0.00805834 0.0104746 0)
(0.00642702 0.0113697 0)
(0.00443494 0.0125081 0)
(0.00182168 0.0129744 0)
(0.0128675 -0.0773651 0)
(0.0329478 -0.0677829 0)
(0.0456659 -0.048048 0)
(0.0500437 -0.0326315 0)
(0.0508805 -0.0217817 0)
(0.0501938 -0.0139881 0)
(0.0489827 -0.00825504 0)
(0.0475571 -0.00389129 0)
(0.0460645 -0.000513673 0)
(0.0445359 0.00211809 0)
(0.042983 0.00416938 0)
(0.0414119 0.00575603 0)
(0.039825 0.006974 0)
(0.0382281 0.00789955 0)
(0.0366267 0.00859368 0)
(0.0350257 0.00910508 0)
(0.0334299 0.00947288 0)
(0.0318441 0.00972826 0)
(0.0302715 0.00989613 0)
(0.0287148 0.00999638 0)
(0.0271753 0.0100452 0)
(0.0256547 0.0100559 0)
(0.024154 0.0100388 0)
(0.0226736 0.0100027 0)
(0.0212138 0.00995458 0)
(0.0197749 0.00990069 0)
(0.0183578 0.00984667 0)
(0.0169638 0.00979783 0)
(0.015594 0.0097613 0)
(0.0142503 0.00974653 0)
(0.0129315 0.00977059 0)
(0.0116331 0.0098622 0)
(0.0103406 0.0100672 0)
(0.00902347 0.0104546 0)
(0.00762352 0.0111119 0)
(0.00603204 0.0121295 0)
(0.00411772 0.0134916 0)
(0.00167736 0.014222 0)
(0.0137654 -0.0863546 0)
(0.0366316 -0.0760834 0)
(0.0503075 -0.0516346 0)
(0.0538001 -0.0335369 0)
(0.053597 -0.0216121 0)
(0.0520606 -0.0134289 0)
(0.0501762 -0.00756903 0)
(0.0482348 -0.00317741 0)
(0.0463451 0.000200277 0)
(0.0445158 0.0028267 0)
(0.0427377 0.00487268 0)
(0.0409994 0.00645592 0)
(0.0392911 0.00767083 0)
(0.0376084 0.00859283 0)
(0.0359488 0.00928251 0)
(0.0343111 0.00978842 0)
(0.0326955 0.0101497 0)
(0.0311029 0.0103977 0)
(0.0295339 0.0105575 0)
(0.0279888 0.0106492 0)
(0.0264676 0.0106891 0)
(0.0249703 0.0106907 0)
(0.0234971 0.0106643 0)
(0.0220474 0.0106188 0)
(0.0206211 0.0105613 0)
(0.0192178 0.0104979 0)
(0.0178379 0.0104342 0)
(0.0164816 0.0103753 0)
(0.015149 0.0103283 0)
(0.0138401 0.0103034 0)
(0.012551 0.010319 0)
(0.0112737 0.0104069 0)
(0.00999052 0.0106183 0)
(0.00866984 0.0110303 0)
(0.00725834 0.0117444 0)
(0.00566593 0.0128726 0)
(0.00379849 0.0144234 0)
(0.00152547 0.0153719 0)
(0.0164338 -0.0945967 0)
(0.0430279 -0.0857836 0)
(0.0570655 -0.0551591 0)
(0.059093 -0.0339636 0)
(0.0575367 -0.0210007 0)
(0.0550046 -0.0125256 0)
(0.0523687 -0.0066194 0)
(0.0498595 -0.00226102 0)
(0.0475322 0.00106952 0)
(0.0453666 0.00365409 0)
(0.0433291 0.00566649 0)
(0.0413903 0.00722429 0)
(0.0395279 0.00841915 0)
(0.037727 0.00932439 0)
(0.035977 0.00999934 0)
(0.0342709 0.0104918 0)
(0.032604 0.0108404 0)
(0.0309736 0.0110761 0)
(0.0293775 0.011224 0)
(0.0278138 0.011304 0)
(0.0262809 0.0113325 0)
(0.0247777 0.0113229 0)
(0.023303 0.0112856 0)
(0.0218557 0.0112293 0)
(0.0204349 0.0111613 0)
(0.0190395 0.0110876 0)
(0.0176689 0.0110136 0)
(0.0163225 0.0109446 0)
(0.0149988 0.0108879 0)
(0.0136953 0.0108546 0)
(0.0124052 0.0108651 0)
(0.0111163 0.0109543 0)
(0.00980741 0.0111778 0)