/*--------------------------------*- C++ -*----------------------------------*\
  =========                 |
  \\      /  F ield         | OpenFOAM: The Open Source CFD Toolbox
   \\    /   O peration     | Website:  https://openfoam.org
    \\  /    A nd           | Version:  7
     \\/     M anipulation  |
\*---------------------------------------------------------------------------*/
FoamFile
{
    version     2.0;
    format      ascii;
    class       volScalarField;
    location    "0.45";
    object      alpha.water;
}
// * * * * * * * * * * * * * * * * * * * * * * * * * * * * * * * * * * * * * //

dimensions      [0 0 0 0 0 0 0];

internalField   nonuniform List<scalar> 
9072
(
1
1
1
1
1
1
1
1
1
1
1
1
1
1
1
1
1
1
1
1
1
1
1
1
1
1
1
1
1
1
1
1
1
1
1
1
1
1
1
1
0.999901
0.970396
0.998146
0.999427
0.999426
0.999087
1
1
1
1
1
1
1
1
1
1
1
1
1
1
1
1
1
1
1
1
1
1
1
1
1
1
1
1
1
1
1
1
1
1
1
1
1
1
1
1
0.999999
0.970396
0.999427
0.999427
0.999427
0.999425
1
1
1
1
1
1
1
1
1
1
1
1
1
1
1
1
1
1
1
1
1
1
1
1
1
1
1
1
1
1
1
1
1
1
1
1
1
1
1
1
1
0.98883
0.978919
0.984558
0.99831
0.999389
1
1
1
1
1
1
1
1
1
1
1
1
1
1
1
1
1
1
1
1
1
1
1
1
1
1
1
1
1
1
1
1
1
1
1
1
1
1
1
1
1
1
0.935183
0.934922
0.951398
0.994914
1
1
1
1
1
1
1
1
1
1
1
1
1
1
1
1
1
1
1
1
1
1
1
1
1
1
1
1
1
1
1
1
1
1
1
1
1
1
1
1
1
1
0.949655
0.934879
0.934879
0.988321
1
1
1
1
1
1
1
1
1
1
1
1
1
1
1
1
1
1
1
1
1
1
1
1
1
1
1
1
1
1
1
1
1
1
1
1
1
1
1
1
1
1
0.99479
0.934879
0.934879
0.987033
1
1
1
1
1
1
1
1
1
1
1
1
1
1
1
1
1
1
1
1
1
1
1
1
1
1
1
1
1
1
1
1
1
1
1
1
1
1
1
1
1
1
1
0.949033
0.934879
0.994904
1
1
1
1
1
1
1
1
1
1
1
1
1
1
1
1
1
1
1
1
1
1
1
1
1
1
1
1
1
1
1
1
1
1
1
1
1
1
1
1
1
1
1
0.987474
0.986251
0.99926
1
1
1
1
1
1
1
1
1
1
1
1
1
1
1
1
1
1
1
1
1
1
1
1
1
1
1
1
1
1
1
1
1
1
1
1
1
1
1
1
1
1
1
1
0.999999
0.999907
1
1
1
1
1
1
1
1
1
1
1
1
1
1
1
1
1
1
1
1
1
1
1
1
1
1
1
1
1
1
1
1
1
1
1
1
1
1
1
1
1
1
1
1
1
0.999901
1
1
1
1
1
1
1
1
1
1
1
1
1
1
1
1
1
1
1
1
1
1
1
1
1
1
1
1
1
1
1
1
1
1
1
1
1
1
1
1
1
1
1
1
1
0.999901
1
1
1
1
1
1
1
1
1
1
1
1
1
1
1
1
1
1
1
1
1
1
1
1
1
1
1
1
1
1
1
1
1
1
1
1
1
1
1
1
1
1
1
1
1
0.999901
1
1
1
1
1
1
1
1
1
1
1
1
1
1
1
1
1
1
1
1
1
1
1
1
1
1
1
1
1
1
1
1
1
1
1
1
1
1
1
1
1
1
1
1
1
0.999902
1
1
1
1
1
1
1
1
1
1
1
1
1
1
1
1
1
1
1
1
1
1
1
1
1
1
1
1
1
1
1
1
1
1
1
1
1
1
1
1
1
1
1
1
1
0.999911
1
1
1
1
1
1
1
1
1
1
1
1
1
1
1
1
1
1
1
1
1
1
1
1
1
1
1
1
1
1
1
1
1
1
1
1
1
1
1
1
1
1
1
1
1
0.999911
1
1
1
1
1
1
1
1
1
1
1
1
1
1
1
1
1
1
1
1
1
1
1
1
1
1
1
1
1
1
1
1
1
1
1
1
1
1
1
1
1
1
1
1
1
0.999911
3.30858e-33
3.60095e-33
1.92529e-33
1.05528e-34
9.22857e-36
9.27535e-36
6.35146e-35
3.05452e-33
5.86792e-32
5.54264e-31
2.95098e-30
1.06237e-29
3.06556e-29
7.7856e-29
1.74627e-28
3.43936e-28
6.05807e-28
5.3644e-28
3.24264e-28
1.64213e-28
7.56625e-29
3.10596e-29
9.49912e-30
1.75821e-30
1.53125e-31
4.74835e-33
3.66329e-35
1.47033e-36
4.82728e-37
6.6189e-38
3.48319e-39
8.37861e-41
1.61973e-42
2.80478e-44
3.42479e-46
2.44471e-48
5.87252e-51
2.10481e-51
2.68669e-32
2.2255e-32
9.93628e-33
1.5533e-33
2.70433e-34
2.82023e-34
2.01624e-32
8.21507e-31
1.65619e-29
1.63916e-28
8.87303e-28
3.03386e-27
7.51697e-27
1.49186e-26
2.51361e-26
3.56318e-26
4.21651e-26
4.439e-26
4.32863e-26
3.4792e-26
2.08389e-26
8.99656e-27
2.62966e-27
4.64778e-28
4.25642e-29
1.66188e-30
2.29953e-32
3.90041e-34
1.03196e-34
1.68324e-35
1.11298e-36
2.6964e-38
4.26336e-40
6.72241e-42
7.94353e-44
5.18022e-46
1.26916e-48
2.10588e-51
9.33077e-31
3.36166e-31
1.68796e-31
4.51368e-32
1.42312e-32
2.8614e-32
2.34124e-30
9.94608e-29
2.07206e-27
2.14877e-26
1.23972e-25
4.5594e-25
1.21358e-24
2.55326e-24
4.41834e-24
6.26331e-24
7.27371e-24
7.35288e-24
6.69216e-24
4.85344e-24
2.67122e-24
1.08464e-24
3.03838e-25
5.27559e-26
4.99652e-27
2.23309e-28
4.18678e-30
7.42667e-32
8.19489e-33
7.7219e-34
3.7862e-35
9.75641e-37
1.81161e-38
2.70921e-40
2.64032e-42
1.11236e-44
1.07878e-48
1.89683e-50
1.25935e-29
4.38308e-30
2.75413e-30
1.10301e-30
5.25271e-31
2.12532e-30
1.85115e-28
8.14034e-27
1.72574e-25
1.83507e-24
1.09685e-23
4.186e-23
1.15144e-22
2.4764e-22
4.29305e-22
6.02973e-22
6.88809e-22
6.84624e-22
5.93772e-22
4.04632e-22
2.1127e-22
8.23008e-23
2.23564e-23
3.82911e-24
3.70173e-25
1.82614e-26
4.30146e-28
8.3389e-30
5.21891e-31
3.35517e-32
1.3577e-33
3.39237e-35
5.9511e-37
7.29126e-39
4.56818e-41
1.63078e-44
3.25529e-47
8.53499e-49
1.08935e-28
4.92463e-29
3.97977e-29
2.3446e-29
1.49246e-29
1.25952e-28
1.1464e-26
5.12425e-25
1.08198e-23
1.15096e-22
6.92776e-22
2.66024e-21
7.38384e-21
1.59504e-20
2.74535e-20
3.8183e-20
4.31659e-20
4.24797e-20
3.56099e-20
2.33104e-20
1.17817e-20
4.47599e-21
1.19371e-21
2.03129e-22
2.00078e-23
1.05851e-24
2.95512e-26
6.38522e-28
2.84916e-29
1.38717e-30
4.72399e-32
1.05887e-33
1.59286e-35
1.38828e-37
1.81127e-40
4.37318e-43
1.1468e-45
3.25038e-47
7.36598e-28
4.88185e-28
4.98933e-28
4.44481e-28
3.52182e-28
6.31193e-27
5.94812e-25
2.63484e-23
5.37997e-22
5.58728e-21
3.34945e-20
1.28801e-19
3.58363e-19
7.71133e-19
1.31979e-18
1.82993e-18
2.04358e-18
1.97512e-18
1.59084e-18
1.00555e-18
4.98093e-19
1.87249e-19
4.96716e-20
8.47243e-21
8.51906e-22
4.77852e-23
1.50431e-24
3.51091e-26
1.2912e-27
5.18547e-29
1.51225e-30
2.93966e-32
3.53612e-34
1.44301e-36
2.64626e-39
1.43674e-41
4.05805e-44
1.13978e-45
4.21159e-27
4.42105e-27
6.03767e-27
7.56605e-27
8.47417e-27
2.80479e-25
2.67353e-23
1.12729e-21
2.14717e-20
2.19422e-19
1.42526e-18
6.16738e-18
1.77165e-17
3.72793e-17
6.19152e-17
8.61325e-17
9.40449e-17
8.55183e-17
6.23365e-17
3.64512e-17
1.72806e-17
6.37829e-18
1.68849e-18
2.90955e-19
3.00426e-20
1.78387e-21
6.2234e-23
1.56274e-24
5.02703e-26
1.73231e-27
4.40387e-29
7.35629e-31
6.36163e-33
1.02274e-35
8.32633e-38
4.9021e-40
1.43916e-42
4.00857e-44
2.10873e-26
3.94101e-26
7.91928e-26
1.53602e-25
3.75529e-25
1.185e-23
1.06332e-21
4.16076e-20
7.56804e-19
8.3329e-18
7.13559e-17
4.22535e-16
1.24416e-15
2.42112e-15
3.51707e-15
4.62833e-15
4.99953e-15
4.27885e-15
2.75853e-15
1.39773e-15
5.83187e-16
1.96701e-16
4.97954e-17
8.53795e-18
9.07402e-19
5.74943e-20
2.22955e-21
6.08742e-23
1.76247e-24
5.28081e-26
1.18535e-27
1.68776e-29
8.48059e-32
3.03246e-34
2.75706e-36
1.69136e-38
5.17168e-41
1.42061e-42
9.35627e-26
3.76826e-25
1.60573e-24
5.97553e-24
2.5283e-23
4.79798e-22
4.14904e-20
1.82709e-18
3.88402e-17
4.46343e-16
3.59031e-15
1.89514e-14
4.92423e-14
8.87754e-14
1.19758e-13
1.44375e-13
1.58025e-13
1.44868e-13
1.03773e-13
5.49892e-14
2.18111e-14
6.49298e-15
1.44545e-15
2.2992e-16
2.43595e-17
1.64648e-18
7.11895e-20
2.12579e-21
5.68936e-23
1.48408e-24
2.97324e-26
3.57354e-28
8.18259e-31
9.413e-33
9.2074e-35
5.8324e-37
1.85253e-39
5.10111e-41
4.03102e-25
5.3152e-24
4.1246e-23
1.89044e-22
8.32432e-22
1.70612e-20
2.43017e-18
1.63602e-16
2.73973e-15
1.79279e-14
7.24161e-14
2.29897e-13
5.00649e-13
8.5709e-13
1.20257e-12
1.45042e-12
1.61118e-12
1.66193e-12
1.4906e-12
1.03986e-12
5.32077e-13
1.87051e-13
4.23233e-14
6.16956e-15
6.13096e-16
4.25682e-17
1.98214e-18
6.18608e-20
1.56984e-21
3.68799e-23
6.77299e-25
6.89068e-27
2.23022e-29
2.80413e-31
2.86705e-33
1.90087e-35
6.28259e-38
1.82577e-39
2.30112e-24
7.65306e-23
6.65021e-22
2.99023e-21
1.35312e-20
1.00587e-18
1.62808e-16
5.00319e-15
4.60133e-14
1.80939e-13
4.19778e-13
8.39548e-13
1.56803e-12
2.5703e-12
3.82997e-12
5.03806e-12
5.7821e-12
6.50035e-12
6.91958e-12
6.33709e-12
4.54811e-12
2.34354e-12
7.32776e-13
1.23994e-13
1.23397e-14
8.38738e-16
3.97518e-17
1.25661e-18
3.13859e-20
7.17875e-22
1.28336e-23
1.19286e-25
4.92741e-28
6.58603e-30
7.0578e-32
4.91141e-34
1.7024e-36
6.18634e-38
1.72902e-23
7.52949e-22
6.01386e-21
2.71697e-20
5.243e-19
1.21026e-16
3.17858e-15
2.30691e-14
1.44877e-13
4.52646e-13
8.6976e-13
1.40599e-12
2.38114e-12
3.78227e-12
5.77833e-12
8.25786e-12
1.03979e-11
1.21445e-11
1.3975e-11
1.52002e-11
1.40016e-11
1.00542e-11
4.55796e-12
1.06073e-12
1.22007e-13
7.86162e-15
3.47981e-16
1.20212e-17
3.48265e-19
8.84291e-21
1.70883e-22
1.78771e-24
6.7623e-27
9.36452e-29
1.05716e-30
7.74835e-33
2.86612e-35
1.6748e-36
1.35838e-22
5.17111e-21
3.50282e-20
3.35236e-19
3.10426e-16
1.00139e-14
4.04365e-15
2.44357e-14
1.44816e-13
2.44702e-13
6.16023e-13
1.41868e-12
2.39624e-12
3.80695e-12
5.82698e-12
8.32164e-12
1.24834e-11
1.5522e-11
1.78751e-11
2.07581e-11
2.2004e-11
1.87952e-11
1.07368e-11
3.37702e-12
4.66264e-13
2.73146e-14
9.79756e-16
3.90147e-17
1.63184e-18
5.55819e-20
1.34544e-21
1.95786e-23
7.91526e-26
6.93977e-28
8.18679e-30
6.40093e-32
2.60743e-34
2.81777e-35
2.94346e-22
1.73269e-20
4.52906e-18
3.45566e-15
8.27172e-14
2.98504e-13
1.65671e-13
2.40705e-13
2.38399e-13
5.82769e-13
1.54914e-12
2.67333e-12
3.78167e-12
5.73403e-12
8.92502e-12
1.22568e-11
1.54704e-11
1.64202e-11
1.82597e-11
2.09697e-11
2.36427e-11
2.21148e-11
1.34396e-11
5.1456e-12
8.21644e-13
4.08672e-14
1.08266e-15
4.65798e-17
3.22518e-18
1.82473e-19
5.92852e-21
1.08133e-22
8.5032e-25
3.15662e-27
3.78089e-29
3.17014e-31
1.46185e-33
2.56292e-34
5.68205e-21
2.28013e-19
6.61409e-18
8.84784e-16
3.20067e-15
2.66077e-15
-1.84586e-14
2.09109e-11
6.41076e-12
1.85742e-11
4.44478e-11
5.55446e-11
5.5466e-11
7.03305e-11
1.04703e-10
1.23785e-10
8.60367e-11
4.11904e-11
3.13485e-11
3.08934e-11
2.92797e-11
2.07014e-11
7.57802e-12
4.56883e-12
9.35813e-13
1.10349e-14
3.2671e-17
8.85806e-19
2.39476e-19
2.21452e-19
4.09543e-20
1.40902e-21
8.83864e-24
2.09781e-26
2.62075e-28
2.33487e-30
1.09925e-32
1.43708e-33
5.9704e-21
9.39118e-20
6.36875e-19
2.49839e-17
-8.02707e-13
-2.6051e-11
4.05818e-09
2.52184e-09
6.72768e-10
1.58532e-09
3.15437e-09
3.29094e-09
2.86801e-09
3.16472e-09
4.1775e-09
4.53241e-09
2.75243e-09
9.06426e-10
4.30967e-10
2.88288e-10
1.53391e-10
5.07614e-11
1.52977e-11
4.70583e-12
7.38986e-13
3.71365e-14
1.40861e-15
2.40672e-17
8.85807e-19
6.99753e-19
1.66896e-19
1.03082e-20
9.21509e-23
1.80496e-25
2.3003e-27
2.18577e-29
1.06579e-31
1.08063e-32
1
1
1
1
1
1
1
1
1
1
1
1
1
1
1
1
1
1
1
1
1
1
1
1
1
1
1
1
1
1
1
1
1
1
1
1
1
1
1
1
1
1
1
1
1
0.999952
1
1
1
1
1
1
1
1
1
1
1
1
1
1
1
1
1
1
1
1
1
1
1
1
1
1
1
1
1
1
1
1
1
1
1
1
1
1
1
1
1
1
1
1
1
1
0.999999
0.999995
0.999995
0.999995
0.999997
0.999998
0.999999
0.999999
0.999999
1
1
1
1
1
1
1
1
1
1
1
1
1
1
1
1
1
1
1
1
1
1
1
1
1
1
1
1
1
1
1
1
1
1
1
1
1
0.901558
0.818282
0.819821
0.844388
0.886351
0.926488
0.953841
0.970679
0.981559
0.9889
0.993771
0.996841
0.998666
0.999643
0.999987
0.999993
0.999993
0.999994
0.999995
0.999996
0.999997
0.999997
0.999998
0.999998
0.999999
0.999999
1
1
1
1
1
1
1
1
1
1
1
1
1
1
1
1
1
1
1
1
0.154035
0.102996
0.102757
0.121213
0.164803
0.224264
0.282961
0.334092
0.37977
0.422399
0.462256
0.498885
0.532606
0.564303
0.594755
0.622121
0.64527
0.668964
0.693868
0.720416
0.748844
0.778982
0.810365
0.842845
0.876889
0.91247
0.947087
0.975573
0.993468
0.99981
1
1
1
1
1
1
1
1
1
1
1
1
1
1
1
1
-1.69404e-13
-9.67485e-14
-2.86327e-14
-3.11118e-10
-4.79562e-10
-3.57882e-10
-2.01512e-10
-1.05069e-10
-7.54839e-11
-1.03166e-10
-1.1332e-09
-2.02861e-09
-2.50228e-09
-1.81132e-09
-5.73108e-10
0.00247733
0.00960431
0.0177416
0.0272886
0.0387909
0.0528678
0.0701278
0.0911766
0.117085
0.150488
0.196544
0.261757
0.349434
0.457811
0.586022
0.718939
0.84747
0.949568
0.996231
1
1
1
1
1
1
1
1
1
1
1
1
-1.72575e-13
-1.53955e-13
-3.83959e-14
-7.38608e-10
-1.1208e-09
-9.13795e-10
-5.87162e-10
-3.65221e-10
-3.33219e-10
-5.61307e-10
-7.35124e-09
-1.82699e-08
-3.05573e-08
-3.70697e-08
-3.54397e-08
-2.93273e-08
-2.28215e-08
-1.76907e-08
-1.41241e-08
-1.16132e-08
-9.67886e-09
-8.00771e-09
-6.44702e-09
-5.0156e-09
-3.7348e-09
-2.62334e-09
-1.70695e-09
-9.92453e-10
-4.59281e-10
-6.53905e-11
0.0185147
0.0737789
0.20287
0.457712
0.734618
0.944823
1
1
1
1
1
1
1
1
1
1
-3.61791e-14
-3.01018e-14
-7.62124e-15
-6.49283e-10
-9.33745e-10
-7.51082e-10
-4.88595e-10
-3.31044e-10
-3.72736e-10
-7.25002e-10
-1.56068e-09
-1.06882e-08
-2.40716e-08
-3.31235e-08
-3.51459e-08
-3.25572e-08
-2.85884e-08
-2.50359e-08
-2.22881e-08
-2.00634e-08
-1.80021e-08
-1.59025e-08
-1.37293e-08
-1.15448e-08
-9.44179e-09
-7.50402e-09
-5.79004e-09
-4.33146e-09
-3.13842e-09
-2.20424e-09
-1.49751e-09
-9.62449e-10
-5.36554e-10
-2.46749e-11
0.0167929
0.0626741
0.124623
0.387348
0.904539
1
1
1
1
1
1
1
-1.4798e-14
-9.73256e-15
-2.63532e-15
-2.07283e-10
-2.97966e-10
-2.38487e-10
-1.56061e-10
-1.35013e-10
-2.37355e-10
-5.68407e-10
-1.29929e-09
-2.61222e-09
-4.60105e-09
-7.19618e-09
-1.01587e-08
-1.31422e-08
-1.57838e-08
-1.77869e-08
-1.89724e-08
-1.92941e-08
-1.88217e-08
-1.77045e-08
-1.61293e-08
-1.4284e-08
-1.23336e-08
-1.04072e-08
-8.59615e-09
-6.95797e-09
-5.52491e-09
-4.30948e-09
-3.30211e-09
-2.47039e-09
-1.77867e-09
-1.21743e-09
-2.90357e-12
2.1351e-08
6.60497e-08
0.0074966
0.0703802
0.13689
0.372835
0.880694
1
1
1
1
-8.52595e-15
-4.69943e-15
-1.3172e-15
-8.98267e-16
-1.62394e-15
-3.4821e-15
-3.66502e-12
-3.00294e-11
-1.09737e-10
-3.10958e-10
-7.49101e-10
-1.55484e-09
-2.81457e-09
-4.5198e-09
-6.55264e-09
-8.71135e-09
-1.07606e-08
-1.24854e-08
-1.37308e-08
-1.44213e-08
-1.45585e-08
-1.4205e-08
-1.34612e-08
-1.24414e-08
-1.12558e-08
-9.99795e-09
-8.73968e-09
-7.53045e-09
-6.40062e-09
-5.36597e-09
-4.43189e-09
-3.59596e-09
-2.85126e-09
-2.20064e-09
-5.45424e-11
-4.65993e-11
5.31955e-11
1.21978e-08
1.75923e-07
2.51224e-07
0.00669923
0.0876546
0.185795
0.293617
0.569345
0.924856
-3.41037e-15
-1.50807e-15
-4.93531e-16
-4.12005e-16
-1.00493e-15
-2.47119e-15
-1.33897e-12
-1.12281e-11
-4.16865e-11
-1.22187e-10
-3.07155e-10
-6.64055e-10
-1.24676e-09
-2.06961e-09
-3.09536e-09
-4.24121e-09
-5.39835e-09
-6.45658e-09
-7.32549e-09
-7.94751e-09
-8.30136e-09
-8.39775e-09
-8.27047e-09
-7.9659e-09
-7.53354e-09
-7.01896e-09
-6.45969e-09
-5.8837e-09
-5.31003e-09
-4.7506e-09
-4.21281e-09
-3.70084e-09
-3.215e-09
-2.74515e-09
-2.26185e-09
-1.25832e-09
-5.71473e-14
-3.86762e-10
-6.46664e-12
4.14093e-10
1.63019e-08
2.91172e-07
2.91586e-07
1.79838e-07
0.0144761
0.0586827
-8.07163e-16
-3.19583e-16
-1.28245e-16
-1.75669e-16
-5.99845e-16
-1.68078e-15
-3.31269e-13
-2.7918e-12
-1.05762e-11
-3.2855e-11
-8.84849e-11
-2.03254e-10
-4.01172e-10
-6.94626e-10
-1.0783e-09
-1.52914e-09
-2.01164e-09
-2.4859e-09
-2.91551e-09
-3.27326e-09
-3.54373e-09
-3.72305e-09
-3.81667e-09
-3.8361e-09
-3.79568e-09
-3.70985e-09
-3.59133e-09
-3.45017e-09
-3.29365e-09
-3.12669e-09
-2.95256e-09
-2.77313e-09
-2.58793e-09
-2.39463e-09
-2.18538e-09
-1.94579e-09
-1.57744e-09
-5.37071e-14
-3.77074e-12
-4.05855e-13
3.4468e-11
-6.77273e-09
-4.73934e-11
1.32414e-10
7.83667e-09
2.62916e-09
-6.46931e-17
-3.9182e-17
-2.55021e-17
-8.26547e-17
-3.68178e-16
-1.15326e-15
-5.2596e-14
-4.31502e-13
-1.66052e-12
-5.75142e-12
-1.74616e-11
-4.40007e-11
-9.30232e-11
-1.69975e-10
-2.76095e-10
-4.0785e-10
-5.57789e-10
-7.16331e-10
-8.73734e-10
-1.02172e-09
-1.15443e-09
-1.26866e-09
-1.36359e-09
-1.44016e-09
-1.50034e-09
-1.54653e-09
-1.58102e-09
-1.60566e-09
-1.62179e-09
-1.6302e-09
-1.63119e-09
-1.62446e-09
-1.60866e-09
-1.58105e-09
-1.53961e-09
-1.48321e-09
-1.39633e-09
-1.21156e-09
-9.51728e-10
-6.18109e-10
-1.65631e-13
-1.91272e-12
-1.25125e-11
-3.58075e-13
-2.908e-10
-5.73157e-11
2.91569e-17
1.28771e-18
-5.74136e-18
-4.62011e-17
-2.37621e-16
-8.1485e-16
-5.97069e-15
-3.72623e-14
-1.3913e-13
-6.16753e-13
-2.32592e-12
-6.72077e-12
-1.5575e-11
-3.05207e-11
-5.2627e-11
-8.2175e-11
-1.18669e-10
-1.61029e-10
-2.07856e-10
-2.57702e-10
-3.09256e-10
-3.61459e-10
-4.13536e-10
-4.64974e-10
-5.15461e-10
-5.64816e-10
-6.12911e-10
-6.59607e-10
-7.04698e-10
-7.47865e-10
-7.88625e-10
-8.26229e-10
-8.5949e-10
-8.86654e-10
-9.05524e-10
-9.1385e-10
-9.12048e-10
-8.95106e-10
-8.50841e-10
-7.57878e-10
-5.65812e-10
-3.14262e-10
-1.48449e-10
-5.7412e-11
0
4.44964e-13
1.72896e-17
2.11894e-18
-2.73208e-18
-2.91772e-17
-1.599e-16
-5.89396e-16
-1.89467e-15
-5.66865e-15
-1.58346e-14
-6.79305e-14
-2.76176e-13
-8.69981e-13
-2.19815e-12
-4.69748e-12
-8.8374e-12
-1.50578e-11
-2.37146e-11
-3.50437e-11
-4.91461e-11
-6.59956e-11
-8.54646e-11
-1.0736e-10
-1.31461e-10
-1.57548e-10
-1.85421e-10
-2.14898e-10
-2.45804e-10
-2.7794e-10
-3.11067e-10
-3.44864e-10
-3.78905e-10
-4.12614e-10
-4.45206e-10
-4.75654e-10
-5.027e-10
-5.24928e-10
-5.40807e-10
-5.48602e-10
-5.4656e-10
-5.33107e-10
-5.03866e-10
-4.58202e-10
-4.00485e-10
-3.33297e-10
-2.60972e-10
-1.90568e-10
1.50105e-18
2.16655e-22
-2.07812e-18
-1.95074e-17
-1.09868e-16
-4.28414e-16
-1.44957e-15
-4.45906e-15
-1.23565e-14
-3.20687e-14
-8.33573e-14
-2.16396e-13
-5.29911e-13
-1.17849e-12
-2.36317e-12
-4.30782e-12
-7.22933e-12
-1.13118e-11
-1.66923e-11
-2.34606e-11
-3.1671e-11
-4.13595e-11
-5.2559e-11
-6.53052e-11
-7.96323e-11
-9.55586e-11
-1.13067e-10
-1.32085e-10
-1.52469e-10
-1.73994e-10
-1.96346e-10
-2.19121e-10
-2.41817e-10
-2.63834e-10
-2.84482e-10
-3.02998e-10
-3.18561e-10
-3.30287e-10
-3.37256e-10
-3.38623e-10
-3.33702e-10
-3.22037e-10
-3.03549e-10
-2.78573e-10
-2.47727e-10
-2.12102e-10
1.31327e-20
-1.18549e-19
-1.50805e-18
-1.31944e-17
-7.53821e-17
-3.06723e-16
-1.07415e-15
-3.34919e-15
-9.24198e-15
-2.2531e-14
-5.244e-14
-1.22483e-13
-2.78907e-13
-5.92435e-13
-1.1517e-12
-2.05165e-12
-3.38261e-12
-5.22482e-12
-7.65064e-12
-1.07329e-11
-1.45546e-11
-1.92154e-11
-2.48288e-11
-3.15109e-11
-3.93607e-11
-4.84395e-11
-5.87514e-11
-7.02319e-11
-8.27453e-11
-9.60892e-11
-1.10005e-10
-1.24192e-10
-1.38314e-10
-1.52017e-10
-1.64933e-10
-1.7669e-10
-1.86915e-10
-1.95233e-10
-2.01272e-10
-2.04696e-10
-2.05244e-10
-2.0277e-10
-1.97308e-10
-1.89084e-10
-1.78456e-10
-1.65874e-10
-5.0242e-21
-9.46388e-20
-1.03893e-18
-8.80797e-18
-5.06978e-17
-2.12708e-16
-7.60489e-16
-2.37808e-15
-6.49672e-15
-1.55736e-14
-3.51003e-14
-7.78819e-14
-1.66964e-13
-3.34576e-13
-6.17912e-13
-1.0548e-12
-1.68243e-12
-2.54065e-12
-3.67896e-12
-5.16419e-12
-7.08439e-12
-9.54558e-12
-1.26601e-11
-1.65284e-11
-2.12191e-11
-2.67517e-11
-3.30875e-11
-4.01287e-11
-4.77264e-11
-5.56936e-11
-6.38217e-11
-7.18948e-11
-7.97023e-11
-8.70472e-11
-9.37523e-11
-9.96628e-11
-1.04646e-10
-1.08591e-10
-1.11404e-10
-1.13013e-10
-1.13371e-10
-1.12465e-10
-1.10326e-10
-1.07035e-10
-1.02708e-10
-9.74945e-11
-5.0278e-21
-6.23371e-20
-6.88558e-19
-5.71207e-18
-3.29454e-17
-1.41066e-16
-5.09323e-16
-1.58472e-15
-4.26456e-15
-1.00183e-14
-2.18758e-14
-4.63137e-14
-9.39404e-14
-1.78294e-13
-3.14097e-13
-5.16947e-13
-8.05732e-13
-1.20759e-12
-1.76364e-12
-2.53256e-12
-3.58896e-12
-5.0152e-12
-6.88736e-12
-9.25905e-12
-1.21473e-11
-1.55248e-11
-1.93195e-11
-2.34222e-11
-2.76989e-11
-3.20051e-11
-3.61989e-11
-4.01518e-11
-4.37549e-11
-4.69223e-11
-4.95908e-11
-5.17185e-11
-5.32811e-11
-5.42685e-11
-5.46812e-11
-5.45295e-11
-5.38324e-11
-5.26191e-11
-5.09314e-11
-4.88232e-11
-4.63587e-11
-4.36093e-11
-3.50975e-21
-3.88954e-20
-4.36693e-19
-3.55538e-18
-2.04594e-17
-8.86165e-17
-3.20348e-16
-9.85834e-16
-2.60302e-15
-5.97604e-15
-1.26339e-14
-2.55669e-14
-4.9217e-14
-8.88469e-14
-1.50347e-13
-2.41455e-13
-3.74627e-13
-5.70822e-13
-8.62516e-13
-1.29383e-12
-1.91615e-12
-2.77921e-12
-3.91961e-12
-5.35009e-12
-7.05311e-12
-8.98033e-12
-1.10582e-11
-1.31977e-11
-1.53053e-11
-1.72936e-11
-1.90887e-11
-2.06342e-11
-2.18933e-11
-2.28466e-11
-2.34902e-11
-2.3832e-11
-2.38884e-11
-2.36811e-11
-2.3235e-11
-2.25764e-11
-2.17327e-11
-2.07321e-11
-1.96038e-11
-1.83776e-11
-1.70837e-11
-1.57515e-11
-2.14729e-21
-2.32272e-20
-2.63089e-19
-2.10443e-18
-1.20386e-17
-5.23513e-17
-1.88201e-16
-5.70172e-16
-1.4725e-15
-3.29596e-15
-6.73986e-15
-1.30517e-14
-2.39244e-14
-4.13521e-14
-6.80569e-14
-1.0883e-13
-1.72621e-13
-2.74647e-13
-4.37289e-13
-6.8853e-13
-1.0573e-12
-1.56651e-12
-2.22571e-12
-3.02605e-12
-3.93927e-12
-4.92108e-12
-5.91777e-12
-6.87406e-12
-7.74024e-12
-8.47725e-12
-9.05912e-12
-9.47322e-12
-9.71865e-12
-9.80373e-12
-9.7432e-12
-9.5556e-12
-9.26107e-12
-8.87972e-12
-8.43063e-12
-7.93128e-12
-7.39735e-12
-6.84281e-12
-6.28005e-12
-5.72002e-12
-5.17227e-12
-4.64489e-12
-1.21511e-21
-1.32093e-20
-1.49616e-19
-1.17597e-18
-6.66643e-18
-2.892e-17
-1.0283e-16
-3.05554e-16
-7.69793e-16
-1.67655e-15
-3.3137e-15
-6.15061e-15
-1.07931e-14
-1.80668e-14
-2.95044e-14
-4.82929e-14
-8.0451e-14
-1.35704e-13
-2.27311e-13
-3.70216e-13
-5.77499e-13
-8.56037e-13
-1.20293e-12
-1.60416e-12
-2.03617e-12
-2.46971e-12
-2.87482e-12
-3.2254e-12
-3.50234e-12
-3.6949e-12
-3.80047e-12
-3.8232e-12
-3.77204e-12
-3.65881e-12
-3.49645e-12
-3.29772e-12
-3.07431e-12
-2.8364e-12
-2.59245e-12
-2.34924e-12
-2.11204e-12
-1.88481e-12
-1.67044e-12
-1.47093e-12
-1.28755e-12
-1.12097e-12
-6.45627e-22
-7.1069e-21
-7.98928e-20
-6.16729e-19
-3.45433e-18
-1.48681e-17
-5.20577e-17
-1.51258e-16
-3.70926e-16
-7.84742e-16
-1.49892e-15
-2.67491e-15
-4.53371e-15
-7.48187e-15
-1.24541e-14
-2.14409e-14
-3.80262e-14
-6.7614e-14
-1.16946e-13
-1.92675e-13
-2.99203e-13
-4.36513e-13
-5.98949e-13
-7.75582e-13
-9.52116e-13
-1.11365e-12
-1.24737e-12
-1.34444e-12
-1.40073e-12
-1.41659e-12
-1.39585e-12
-1.34459e-12
-1.26993e-12
-1.17902e-12
-1.0784e-12
-9.73618e-13
-8.69048e-13
-7.67954e-13
-6.72594e-13
-5.84393e-13
-5.04122e-13
-4.32058e-13
-3.68127e-13
-3.12015e-13
-2.63247e-13
-2.21253e-13
-3.23068e-22
-3.59526e-21
-3.98676e-20
-3.01941e-19
-1.6663e-18
-7.08275e-18
-2.43307e-17
-6.89543e-17
-1.64298e-16
-3.37251e-16
-6.2299e-16
-1.07459e-15
-1.78319e-15
-2.9713e-15
-5.18088e-15
-9.51812e-15
-1.78508e-14
-3.27867e-14
-5.7255e-14
-9.36444e-14
-1.42721e-13
-2.02787e-13
-2.69536e-13
-3.36768e-13
-3.97715e-13
-4.46478e-13
-4.79093e-13
-4.93979e-13
-4.91778e-13
-4.7481e-13
-4.46356e-13
-4.10001e-13
-3.69131e-13
-3.26625e-13
-2.84719e-13
-2.44998e-13
-2.08471e-13
-1.75676e-13
-1.46795e-13
-1.21763e-13
-1.00353e-13
-8.22472e-14
-6.70869e-14
-5.45032e-14
-4.41406e-14
-3.56692e-14
-1.5193e-22
-1.70005e-21
-1.85025e-20
-1.37288e-19
-7.44503e-19
-3.11263e-18
-1.04589e-17
-2.8852e-17
-6.6705e-17
-1.3277e-16
-2.37675e-16
-3.99534e-16
-6.61155e-16
-1.14153e-15
-2.12195e-15
-4.14218e-15
-8.05294e-15
-1.49454e-14
-2.58915e-14
-4.15165e-14
-6.15571e-14
-8.46366e-14
-1.08424e-13
-1.30156e-13
-1.47303e-13
-1.58134e-13
-1.61981e-13
-1.59199e-13
-1.50895e-13
-1.38573e-13
-1.23813e-13
-1.0803e-13
-9.235e-14
-7.75691e-14
-6.41783e-14
-5.24181e-14
-4.23434e-14
-3.38853e-14
-2.69013e-14
-2.12134e-14
-1.66343e-14
-1.29835e-14
-1.00969e-14
-7.83106e-15
-6.06343e-15
-4.69195e-15
-6.68287e-23
-7.46765e-22
-7.94422e-21
-5.76561e-20
-3.06467e-19
-1.25593e-18
-4.11762e-18
-1.10387e-17
-2.47423e-17
-4.77638e-17
-8.3166e-17
-1.37827e-16
-2.32372e-16
-4.24413e-16
-8.42265e-16
-1.71662e-15
-3.3858e-15
-6.24284e-15
-1.0607e-14
-1.65477e-14
-2.37415e-14
-3.14571e-14
-3.87048e-14
-4.44984e-14
-4.81139e-14
-4.9243e-14
-4.80023e-14
-4.4828e-14
-4.03213e-14
-3.5102e-14
-2.97056e-14
-2.45326e-14
-1.98401e-14
-1.57601e-14
-1.23293e-14
-9.52142e-15
-7.27329e-15
-5.5056e-15
-4.13628e-15
-3.08856e-15
-2.29507e-15
-1.6992e-15
-1.25484e-15
-9.25345e-16
-6.82085e-16
-5.029e-16
-2.73123e-23
-3.02614e-22
-3.13632e-21
-2.22262e-20
-1.15532e-19
-4.62757e-19
-1.47735e-18
-3.84458e-18
-8.35235e-18
-1.56579e-17
-2.66702e-17
-4.42078e-17
-7.75071e-17
-1.51104e-16
-3.16198e-16
-6.59023e-16
-1.29653e-15
-2.34878e-15
-3.88647e-15
-5.87114e-15
-8.12226e-15
-1.03406e-14
-1.21873e-14
-1.33847e-14
-1.37908e-14
-1.34207e-14
-1.2416e-14
-1.09863e-14
-9.35016e-15
-7.69305e-15
-6.14718e-15
-4.7899e-15
-3.65278e-15
-2.73499e-15
-2.01629e-15
-1.46722e-15
-1.05618e-15
-7.53589e-16
-5.3387e-16
-3.76121e-16
-2.63896e-16
-1.84637e-16
-1.2896e-16
-8.99668e-17
-6.25899e-17
-4.27007e-17
-1.02835e-23
-1.12214e-22
-1.13014e-21
-7.80779e-21
-3.96074e-20
-1.54699e-19
-4.80205e-19
-1.21237e-18
-2.55423e-18
-4.66162e-18
-7.82798e-18
-1.31838e-17
-2.43886e-17
-5.0543e-17
-1.09468e-16
-2.29243e-16
-4.44686e-16
-7.86011e-16
-1.26103e-15
-1.83885e-15
-2.44666e-15
-2.9861e-15
-3.36381e-15
-3.52124e-15
-3.44943e-15
-3.1844e-15
-2.78914e-15
-2.33258e-15
-1.87358e-15
-1.4531e-15
-1.09341e-15
-8.01685e-16
-5.7492e-16
-4.04633e-16
-2.80327e-16
-1.91677e-16
-1.29658e-16
-8.69507e-17
-5.79181e-17
-3.83854e-17
-2.53495e-17
-1.66923e-17
-1.09258e-17
-6.98381e-18
-4.04127e-18
0
-3.52957e-24
-3.77048e-23
-3.68343e-22
-2.47748e-21
-1.22448e-20
-4.65566e-20
-1.40391e-19
-3.43891e-19
-7.03571e-19
-1.25486e-18
-2.0969e-18
-3.63996e-18
-7.14041e-18
-1.55217e-17
-3.4169e-17
-7.09861e-17
-1.34768e-16
-2.31403e-16
-3.5889e-16
-5.04008e-16
-6.43671e-16
-7.51671e-16
-8.07773e-16
-8.04392e-16
-7.47672e-16
-6.53391e-16
-5.40644e-16
-4.26394e-16
-3.22506e-16
-2.35245e-16
-1.66319e-16
-1.14488e-16
-7.70392e-17
-5.08559e-17
-3.30385e-17
-2.11821e-17
-1.34363e-17
-8.4514e-18
-5.28193e-18
-3.28491e-18
-2.03217e-18
-1.22511e-18
-6.46279e-19
1.53547e-36
5.51697e-19
8.08228e-18
-1.08999e-24
-1.13424e-23
-1.0737e-22
-7.02419e-22
-3.37864e-21
-1.24925e-20
-3.65879e-20
-8.70243e-20
-1.73286e-19
-3.03527e-19
-5.09609e-19
-9.20637e-19
-1.90605e-18
-4.27345e-18
-9.42396e-18
-1.92586e-17
-3.56183e-17
-5.92403e-17
-8.86337e-17
-1.19661e-16
-1.46435e-16
-1.63347e-16
-1.67169e-16
-1.58076e-16
-1.39148e-16
-1.14885e-16
-8.96215e-17
-6.65189e-17
-4.7278e-17
-3.23673e-17
-2.14577e-17
-1.38403e-17
-8.72211e-18
-5.39057e-18
-3.27817e-18
-1.96743e-18
-1.16839e-18
-6.88209e-19
-4.02647e-19
-2.32772e-19
-1.28564e-19
-1.47266e-20
1.05838e-19
1.67056e-18
1.60207e-17
1.72918e-16
-2.9797e-25
-3.00908e-24
-2.75962e-23
-1.75539e-22
-8.21358e-22
-2.95282e-21
-8.40456e-21
-1.94411e-20
-3.77892e-20
-6.53522e-20
-1.11131e-19
-2.0952e-19
-4.52459e-19
-1.02964e-18
-2.25116e-18
-4.50144e-18
-8.08754e-18
-1.30056e-17
-1.87436e-17
-2.42921e-17
-2.84443e-17
-3.02622e-17
-2.94453e-17
-2.63926e-17
-2.19601e-17
-1.7095e-17
-1.25463e-17
-8.74467e-18
-5.82773e-18
-3.73653e-18
-2.31777e-18
-1.39787e-18
-8.23342e-19
-4.75467e-19
-2.70151e-19
-1.51492e-19
-8.40723e-20
-4.6246e-20
-2.48408e-20
-1.10238e-20
0
7.85047e-20
1.37488e-18
1.51929e-17
1.20522e-16
1.27835e-15
-7.06366e-26
-6.90686e-25
-6.14113e-24
-3.79997e-23
-1.73042e-22
-6.05341e-22
-1.67692e-21
-3.78105e-21
-7.19761e-21
-1.23454e-20
-2.13495e-20
-4.18116e-20
-9.27565e-20
-2.11423e-19
-4.55226e-19
-8.88164e-19
-1.54805e-18
-2.40478e-18
-3.33536e-18
-4.14537e-18
-4.63872e-18
-4.70026e-18
-4.34105e-18
-3.68139e-18
-2.88939e-18
-2.11597e-18
-1.4575e-18
-9.51577e-19
-5.93086e-19
-3.55192e-19
-2.05604e-19
-1.15638e-19
-6.34871e-20
-3.41653e-20
-1.8088e-20
-9.4509e-21
-4.88079e-21
-2.4376e-21
-5.92849e-22
2.17198e-21
4.60454e-20
5.26028e-19
6.35939e-18
7.63075e-17
6.53762e-16
7.01042e-15
-1.41406e-26
-1.33802e-25
-1.15542e-24
-6.96499e-24
-3.09158e-23
-1.05442e-22
-2.84976e-22
-6.28038e-22
-1.17401e-21
-2.00104e-21
-3.51228e-21
-7.06626e-21
-1.58433e-20
-3.57977e-20
-7.56387e-20
-1.43904e-19
-2.43374e-19
-3.65282e-19
-4.87527e-19
-5.80778e-19
-6.2054e-19
-5.98097e-19
-5.2348e-19
-4.1919e-19
-3.09629e-19
-2.12754e-19
-1.37149e-19
-8.36193e-20
-4.85854e-20
-2.70885e-20
-1.45825e-20
-7.62162e-21
-3.88644e-21
-1.94188e-21
-9.54277e-22
-4.61719e-22
-2.13763e-22
-4.68589e-41
7.26774e-22
1.35885e-20
1.47852e-19
1.81873e-18
2.59184e-17
3.35643e-16
3.01408e-15
3.21108e-14
-2.30748e-27
-2.11603e-26
-1.77983e-25
-1.04808e-24
-4.5478e-24
-1.51704e-23
-4.01305e-23
-8.66732e-23
-1.5925e-22
-2.68939e-22
-4.74371e-22
-9.64213e-22
-2.14672e-21
-4.76765e-21
-9.88231e-21
-1.83758e-20
-3.02294e-20
-4.3928e-20
-5.64897e-20
-6.45357e-20
-6.58301e-20
-6.03098e-20
-4.99578e-20
-3.77042e-20
-2.61465e-20
-1.68089e-20
-1.01078e-20
-5.73467e-21
-3.09447e-21
-1.5998e-21
-7.97622e-22
-3.8575e-22
-1.81897e-22
-8.39972e-23
-3.80094e-23
-1.57905e-23
4.68589e-41
1.69668e-22
3.02974e-21
3.70437e-20
4.43409e-19
6.03556e-18
9.40662e-17
1.28596e-15
1.20946e-14
1.26871e-13
-2.92145e-28
-2.60648e-27
-2.14487e-26
-1.23911e-25
-5.27957e-25
-1.73012e-24
-4.49625e-24
-9.53318e-24
-1.71699e-23
-2.84159e-23
-4.93124e-23
-9.88845e-23
-2.13325e-22
-4.61227e-22
-9.42078e-22
-1.7255e-21
-2.78067e-21
-3.93508e-21
-4.89579e-21
-5.37797e-21
-5.24552e-21
-4.57103e-21
-3.58304e-21
-2.54614e-21
-1.6547e-21
-9.92775e-22
-5.55174e-22
-2.92056e-22
-1.45781e-22
-6.95872e-23
-3.19872e-23
-1.42469e-23
-6.18087e-24
-2.61205e-24
-9.43879e-25
8.20889e-25
3.2923e-23
4.92431e-22
6.99443e-21
9.39078e-20
1.20975e-18
1.78168e-17
3.0052e-16
4.32521e-15
4.24573e-14
4.32372e-13
-2.66173e-29
-2.32627e-28
-1.88517e-27
-1.07526e-26
-4.52666e-26
-1.4653e-25
-3.75465e-25
-7.81117e-25
-1.36661e-24
-2.16165e-24
-3.53635e-24
-6.71229e-24
-1.32527e-23
-2.72325e-23
-5.5795e-23
-1.03203e-22
-1.66313e-22
-2.32985e-22
-2.83609e-22
-3.0184e-22
-2.83064e-22
-2.35609e-22
-1.75291e-22
-1.17494e-22
-7.16023e-23
-4.00731e-23
-2.08106e-23
-1.01292e-23
-4.6642e-24
-2.04901e-24
-8.65207e-25
-3.53419e-25
-1.39517e-25
-4.07297e-26
1.29031e-25
3.64438e-24
5.93771e-23
9.74898e-22
1.50496e-20
2.13663e-19
2.94799e-18
4.69423e-17
8.53764e-16
1.28964e-14
1.30757e-13
1.26936e-12
-1.52467e-30
-1.3213e-29
-1.06564e-28
-6.05887e-28
-2.5419e-27
-8.18095e-27
-2.07261e-26
-4.21164e-26
-7.01241e-26
-1.00276e-25
-1.3862e-25
-2.21545e-25
-2.92629e-25
-4.49741e-25
-1.06791e-24
-2.39491e-24
-4.3338e-24
-6.48824e-24
-8.08642e-24
-8.5608e-24
-7.85874e-24
-6.33488e-24
-4.52256e-24
-2.8839e-24
-1.65833e-24
-8.69383e-25
-4.20351e-25
-1.89567e-25
-8.05741e-26
-3.25812e-26
-1.26331e-26
-4.6835e-27
-7.10663e-28
1.26741e-26
3.16491e-25
5.7145e-24
1.02447e-22
1.76877e-21
2.87609e-20
4.32261e-19
6.38999e-18
1.10731e-16
2.17958e-15
3.44857e-14
3.56146e-13
3.22985e-12
-3.97965e-32
-3.50541e-31
-2.86611e-30
-1.64988e-29
-6.9828e-29
-2.25203e-28
-5.64746e-28
-1.10794e-27
-1.67922e-27
-1.85906e-27
-1.16507e-27
-1.0154e-29
9.13607e-27
3.27309e-26
6.36701e-26
7.49445e-26
7.40657e-26
5.91085e-26
3.47062e-26
1.73101e-26
6.22074e-27
6.21815e-28
-3.85013e-28
-6.78803e-28
-4.96356e-28
-2.38346e-28
-8.02188e-29
-1.65152e-29
1.86397e-31
1.57786e-30
2.87551e-30
4.28172e-29
9.21219e-28
2.18044e-26
4.32288e-25
8.39608e-24
1.57154e-22
2.84729e-21
4.86888e-20
7.71414e-19
1.22043e-17
2.32304e-16
5.00555e-15
8.31356e-14
8.6361e-13
7.18274e-12
-5.42033e-52
-2.81125e-52
-1.72877e-53
-8.10284e-55
-3.32881e-56
-4.06941e-84
9.36497e-36
1.02205e-34
2.97531e-34
6.02575e-34
2.25187e-34
4.90743e-36
1.14171e-38
1.94061e-38
1.42819e-34
3.181e-28
4.47681e-29
6.16989e-31
4.49778e-35
4.23693e-35
1.18938e-32
2.03371e-30
1.9442e-29
1.4878e-29
3.34298e-30
9.41514e-32
8.54969e-36
1.50169e-34
3.28409e-33
8.58629e-32
2.13967e-30
5.24249e-29
1.20094e-27
2.61196e-26
5.47913e-25
1.10353e-23
2.1577e-22
4.0749e-21