/*--------------------------------*- C++ -*----------------------------------*\
  =========                 |
  \\      /  F ield         | OpenFOAM: The Open Source CFD Toolbox
   \\    /   O peration     | Website:  https://openfoam.org
    \\  /    A nd           | Version:  7
     \\/     M anipulation  |
\*---------------------------------------------------------------------------*/
FoamFile
{
    version     2.0;
    format      ascii;
    class       surfaceScalarField;
    location    "0.45";
    object      alphaPhi0.water;
}
// * * * * * * * * * * * * * * * * * * * * * * * * * * * * * * * * * * * * * //

dimensions      [0 3 -1 0 0 0 0];

internalField   nonuniform List<scalar> 
17936
(
-1.80354e-06
1.80354e-06
-2.69342e-06
8.89878e-07
-2.52171e-06
-1.71711e-07
-1.76238e-06
-7.59326e-07
-7.41022e-07
-1.02136e-06
3.89711e-07
-1.13073e-06
1.55041e-06
-1.16069e-06
2.69565e-06
-1.14524e-06
3.80096e-06
-1.10532e-06
4.855e-06
-1.05403e-06
5.85388e-06
-9.98887e-07
6.79816e-06
-9.44276e-07
7.6908e-06
-8.92641e-07
8.53593e-06
-8.45134e-07
9.33802e-06
-8.02091e-07
1.01014e-05
-7.63346e-07
1.08298e-05
-7.28399e-07
1.15263e-05
-6.96544e-07
1.21933e-05
-6.66949e-07
1.28319e-05
-6.38668e-07
1.34426e-05
-6.10685e-07
1.40245e-05
-5.81919e-07
1.45757e-05
-5.51173e-07
1.50929e-05
-5.17163e-07
1.55713e-05
-4.78434e-07
1.60046e-05
-4.33305e-07
1.63844e-05
-3.79816e-07
1.67e-05
-3.15544e-07
1.6937e-05
-2.36991e-07
1.70763e-05
-1.393e-07
1.70832e-05
-6.8986e-09
1.69057e-05
1.77445e-07
1.65077e-05
3.97994e-07
1.58403e-05
6.67398e-07
1.48446e-05
9.95683e-07
1.34532e-05
1.39144e-06
1.15996e-05
1.85361e-06
9.24127e-06
2.35832e-06
6.39248e-06
2.84879e-06
3.15977e-06
3.23271e-06
-3.05528e-07
3.47418e-06
-4.11986e-06
3.70329e-06
-7.44034e-06
3.30884e-06
-8.58402e-06
1.1437e-06
-6.08548e-06
-2.49852e-06
-6.08754e-06
-1.53509e-06
3.33863e-06
-1.77752e-06
1.13231e-06
-1.40527e-06
-5.43959e-07
-6.66459e-07
-1.49814e-06
2.89545e-07
-1.97737e-06
1.35417e-06
-2.19536e-06
2.45814e-06
-2.26467e-06
3.55873e-06
-2.24583e-06
4.63168e-06
-2.17826e-06
5.66417e-06
-2.08652e-06
6.65074e-06
-1.98546e-06
7.59038e-06
-1.88392e-06
8.48462e-06
-1.78688e-06
9.33626e-06
-1.69678e-06
1.01486e-05
-1.61447e-06
1.09251e-05
-1.53977e-06
1.16685e-05
-1.47181e-06
1.23813e-05
-1.40932e-06
1.30651e-05
-1.35075e-06
1.37207e-05
-1.29431e-06
1.43481e-05
-1.23805e-06
1.4946e-05
-1.17988e-06
1.55123e-05
-1.11749e-06
1.60435e-05
-1.04835e-06
1.65347e-05
-9.69628e-07
1.69794e-05
-8.78021e-07
1.73693e-05
-7.69699e-07
1.76938e-05
-6.39995e-07
1.79397e-05
-4.82878e-07
1.80911e-05
-2.90756e-07
1.8135e-05
-5.07636e-08
1.80575e-05
2.54958e-07
1.78191e-05
6.36377e-07
1.73767e-05
1.1098e-06
1.66779e-05
1.69451e-06
1.56582e-05
2.41109e-06
1.42401e-05
3.27169e-06
1.23378e-05
4.26069e-06
9.87707e-06
5.30949e-06
6.84036e-06
6.26943e-06
3.31087e-06
7.00383e-06
-4.16501e-07
7.31947e-06
-3.63734e-06
6.52971e-06
-5.41233e-06
2.9187e-06
-4.89624e-06
-3.01459e-06
-1.09837e-05
-1.05758e-06
4.3962e-06
-1.04048e-06
1.11521e-06
-6.03113e-07
-9.81323e-07
1.18201e-07
-2.21945e-06
1.02291e-06
-2.88208e-06
2.02947e-06
-3.20192e-06
3.07617e-06
-3.31137e-06
4.12525e-06
-3.29491e-06
5.15408e-06
-3.20709e-06
6.1501e-06
-3.08254e-06
7.10735e-06
-2.94271e-06
8.02396e-06
-2.80054e-06
8.90051e-06
-2.66342e-06
9.73886e-06
-2.53513e-06
1.05414e-05
-2.41706e-06
1.13108e-05
-2.3091e-06
1.20491e-05
-2.21016e-06
1.27583e-05
-2.11847e-06
1.34394e-05
-2.03186e-06
1.40929e-05
-1.9478e-06
1.47183e-05
-1.8635e-06
1.53144e-05
-1.77591e-06
1.58785e-05
-1.68168e-06
1.64073e-05
-1.57713e-06
1.68958e-05
-1.45809e-06
1.73375e-05
-1.31977e-06
1.77244e-05
-1.15657e-06
1.80462e-05
-9.61819e-07
1.82906e-05
-7.27252e-07
1.84425e-05
-4.42609e-07
1.84859e-05
-9.42414e-08
1.84042e-05
3.36716e-07
1.81712e-05
8.69333e-07
1.77554e-05
1.52562e-06
1.71193e-05
2.33063e-06
1.62199e-05
3.31046e-06
1.50083e-05
4.48332e-06
1.3429e-05
5.84e-06
1.14248e-05
7.31365e-06
8.95438e-06
8.73986e-06
6.06294e-06
9.89527e-06
2.98165e-06
1.04859e-05
9.75241e-08
8.81879e-06
-2.18733e-06
4.90167e-06
-2.97388e-06
-2.20665e-06
-1.3956e-05
-5.93096e-07
4.9893e-06
-4.30315e-07
9.5243e-07
5.76878e-08
-1.46933e-06
7.732e-07
-2.93497e-06
1.64499e-06
-3.75387e-06
2.60355e-06
-4.16048e-06
3.59949e-06
-4.30731e-06
4.60036e-06
-4.29578e-06
5.58601e-06
-4.19274e-06
6.54478e-06
-4.04131e-06
7.47069e-06
-3.86862e-06
8.3614e-06
-3.69125e-06
9.21678e-06
-3.5188e-06
1.00379e-05
-3.35628e-06
1.08266e-05
-3.20568e-06
1.15845e-05
-3.06702e-06
1.23134e-05
-2.93904e-06
1.30145e-05
-2.81959e-06
1.36886e-05
-2.70594e-06
1.43357e-05
-2.59491e-06
1.49551e-05
-2.48292e-06
1.55453e-05
-2.36608e-06
1.61036e-05
-2.24005e-06
1.66265e-05
-2.10006e-06
1.71092e-05
-1.94071e-06
1.75452e-05
-1.75579e-06
1.79267e-05
-1.5381e-06
1.8244e-05
-1.27913e-06
1.84854e-05
-9.68601e-07
1.86368e-05
-5.94043e-07
1.86826e-05
-1.40083e-07
1.86058e-05
4.13573e-07
1.83852e-05
1.08994e-06
1.7996e-05
1.91484e-06
1.74102e-05
2.91639e-06
1.65982e-05
4.1225e-06
1.55292e-05
5.55232e-06
1.41714e-05
7.19774e-06
1.24924e-05
8.99266e-06
1.04632e-05
1.07691e-05
8.11275e-06
1.22457e-05
5.56438e-06
1.30342e-05
2.83389e-06
1.15325e-05
5.60205e-07
7.17163e-06
-8.7334e-07
-7.11164e-07
-1.47467e-05
-1.72504e-07
5.1618e-06
9.51251e-08
6.848e-07
6.2748e-07
-2.00168e-06
1.34991e-06
-3.6574e-06
2.19866e-06
-4.60261e-06
3.11897e-06
-5.08079e-06
4.07106e-06
-5.25941e-06
5.02818e-06
-5.2529e-06
5.97322e-06
-5.13777e-06
6.8959e-06
-4.96399e-06
7.79063e-06
-4.76335e-06
8.65488e-06
-4.55549e-06
9.48801e-06
-4.35194e-06
1.02906e-05
-4.15882e-06
1.10636e-05
-3.97868e-06
1.18083e-05
-3.81173e-06
1.25258e-05
-3.65657e-06
1.3217e-05
-3.51076e-06
1.38821e-05
-3.37109e-06
1.4521e-05
-3.23378e-06
1.51326e-05
-3.09457e-06
1.57153e-05
-2.94875e-06
1.62663e-05
-2.7911e-06
1.67821e-05
-2.61582e-06
1.72578e-05
-2.41637e-06
1.76872e-05
-2.18523e-06
1.80629e-05
-1.91374e-06
1.83754e-05
-1.59172e-06
1.8614e-05
-1.20711e-06
1.87655e-05
-7.45595e-07
1.88154e-05
-1.90012e-07
1.87478e-05
4.81214e-07
1.85446e-05
1.2931e-06
1.81861e-05
2.27341e-06
1.76511e-05
3.4514e-06
1.69189e-05
4.85463e-06
1.59706e-05
6.50063e-06
1.47888e-05
8.37955e-06
1.33568e-05
1.04246e-05
1.16579e-05
1.2468e-05
9.70566e-06
1.4198e-05
7.59728e-06
1.51426e-05
5.07697e-06
1.40505e-05
2.76504e-06
9.48283e-06
8.04397e-07
1.24876e-06
-1.38247e-05
1.80782e-07
4.98102e-06
5.34025e-07
3.31557e-07
1.12158e-06
-2.58923e-06
1.85998e-06
-4.3958e-06
2.69599e-06
-5.43862e-06
3.58684e-06
-5.97164e-06
4.50182e-06
-6.17439e-06
5.41999e-06
-6.17107e-06
6.32764e-06
-6.04543e-06
7.21625e-06
-5.85259e-06
8.08087e-06
-5.62798e-06
8.91903e-06
-5.39365e-06
9.72982e-06
-5.16272e-06
1.05133e-05
-4.94226e-06
1.12699e-05
-4.73534e-06
1.20005e-05
-4.54232e-06
1.27057e-05
-4.36175e-06
1.33859e-05
-4.19093e-06
1.4041e-05
-4.02624e-06
1.46706e-05
-3.86337e-06
1.52735e-05
-3.69744e-06
1.58477e-05
-3.52301e-06
1.63907e-05
-3.33403e-06
1.68986e-05
-3.12376e-06
1.73668e-05
-2.8846e-06
1.77895e-05
-2.60785e-06
1.81592e-05
-2.28349e-06
1.84674e-05
-1.89988e-06
1.87037e-05
-1.44342e-06
1.88563e-05
-8.98217e-07
1.89119e-05
-2.4561e-07
1.88561e-05
5.36973e-07
1.86737e-05
1.47553e-06
1.83486e-05
2.59848e-06
1.78651e-05
3.9349e-06
1.7209e-05
5.51079e-06
1.63687e-05
7.34097e-06
1.53352e-05
9.413e-06
1.41002e-05
1.16597e-05
1.2652e-05
1.39161e-05
1.09865e-05
1.58635e-05
9.14052e-06
1.69886e-05
6.93925e-06
1.62634e-05
4.40919e-06
1.20122e-05
2.01268e-06
3.64455e-06
-1.17194e-05
4.22577e-07
4.55844e-06
8.94882e-07
-1.40748e-07
1.54594e-06
-3.24029e-06
2.30973e-06
-5.15959e-06
3.142e-06
-6.27089e-06
4.01114e-06
-6.84078e-06
4.89523e-06
-7.05848e-06
5.77921e-06
-7.05505e-06
6.65297e-06
-6.91918e-06
7.50991e-06
-6.70953e-06
8.34599e-06
-6.46407e-06
9.15897e-06
-6.20663e-06
9.9478e-06
-5.95154e-06
1.07122e-05
-5.70664e-06
1.14522e-05
-5.4754e-06
1.21683e-05
-5.25836e-06
1.28606e-05
-5.05402e-06
1.35291e-05
-4.85946e-06
1.41736e-05
-4.67071e-06
1.47932e-05
-4.48301e-06
1.53866e-05
-4.2909e-06
1.59519e-05
-4.08828e-06
1.64862e-05
-3.86834e-06
1.6986e-05
-3.6235e-06
1.74466e-05
-3.34519e-06
1.78623e-05
-3.02362e-06
1.82264e-05
-2.64757e-06
1.85306e-05
-2.20409e-06
1.87655e-05
-1.67829e-06
1.89202e-05
-1.05296e-06
1.89829e-05
-3.08316e-07
1.8941e-05
5.7889e-07
1.87816e-05
1.63498e-06
1.84918e-05
2.8882e-06
1.80602e-05
4.36659e-06
1.74769e-05
6.09403e-06
1.67355e-05
8.08241e-06
1.58314e-05
1.03171e-05
1.47596e-05
1.27315e-05
1.35082e-05
1.51675e-05
1.20573e-05
1.73144e-05
1.03959e-05
1.86499e-05
8.40686e-06
1.82524e-05
5.73768e-06
1.47299e-05
2.98497e-06
6.39654e-06
-8.64815e-06
5.74175e-07
3.98427e-06
1.18093e-06
-7.47508e-07
1.90734e-06
-3.9667e-06
2.70451e-06
-5.95676e-06
3.54021e-06
-7.10659e-06
4.3941e-06
-7.69467e-06
5.25281e-06
-7.91719e-06
6.10709e-06
-7.90933e-06
6.95042e-06
-7.76251e-06
7.77827e-06
-7.53739e-06
8.58763e-06
-7.27343e-06
9.37663e-06
-6.99563e-06
1.01442e-05
-6.71912e-06
1.08899e-05
-6.45228e-06
1.16134e-05
-6.19893e-06
1.23147e-05
-5.9597e-06
1.29938e-05
-5.73307e-06
1.36503e-05
-5.51595e-06
1.42836e-05
-5.30405e-06
1.48928e-05
-5.09222e-06
1.54764e-05
-4.87449e-06
1.60323e-05
-4.64414e-06
1.65576e-05
-4.39371e-06
1.70489e-05
-4.11482e-06
1.75018e-05
-3.79804e-06
1.79108e-05
-3.43262e-06
1.82695e-05
-3.00624e-06
1.85702e-05
-2.50486e-06
1.88044e-05
-1.91245e-06
1.89623e-05
-1.21083e-06
1.90333e-05
-3.79386e-07
1.90068e-05
6.05458e-07
1.88719e-05
1.76989e-06
1.86186e-05
3.14142e-06
1.82386e-05
4.74663e-06
1.77256e-05
6.60704e-06
1.70761e-05
8.73193e-06
1.62879e-05
1.11053e-05
1.53562e-05
1.36632e-05
1.42662e-05
1.62575e-05
1.29844e-05
1.85962e-05
1.14595e-05
2.01748e-05
9.57717e-06
2.01348e-05
7.0478e-06
1.73341e-05
3.93409e-06
9.94867e-06
-4.68586e-06
6.70159e-07
3.31411e-06
1.40893e-06
-1.48628e-06
2.21545e-06
-4.77322e-06
3.05045e-06
-6.79177e-06
3.89439e-06
-7.95053e-06
4.73792e-06
-8.5382e-06
5.57581e-06
-8.75508e-06
6.40437e-06
-8.73789e-06
7.22055e-06
-8.57869e-06
8.02189e-06
-8.33872e-06
8.80645e-06
-8.05799e-06
9.57282e-06
-7.76201e-06
1.03201e-05
-7.46635e-06
1.10475e-05
-7.17973e-06
1.17547e-05
-6.90615e-06
1.24414e-05
-6.64636e-06
1.31071e-05
-6.39877e-06
1.37513e-05
-6.16015e-06
1.43732e-05
-5.92596e-06
1.49716e-05
-5.69067e-06
1.5545e-05
-5.44785e-06
1.60911e-05
-5.19028e-06
1.66073e-05
-4.90986e-06
1.709e-05
-4.59754e-06
1.75351e-05
-4.2431e-06
1.79374e-05
-3.83494e-06
1.8291e-05
-3.35981e-06
1.85888e-05
-2.80267e-06
1.88229e-05
-2.14662e-06
1.89848e-05
-1.37271e-06
1.90653e-05
-4.59859e-07
1.90552e-05
6.15535e-07
1.89459e-05
1.87919e-06
1.87298e-05
3.35756e-06
1.84009e-05
5.07551e-06
1.79557e-05
7.05228e-06
1.73926e-05
9.29497e-06
1.67106e-05
1.17873e-05
1.59039e-05
1.44699e-05
1.49535e-05
1.7208e-05
1.38139e-05
1.97358e-05
1.2402e-05
2.15867e-05
1.05627e-05
2.19741e-05
8.06514e-06
1.98317e-05
4.63157e-06
1.33823e-05
-5.50894e-08
7.412e-07
2.57291e-06
1.5982e-06
-2.34327e-06
2.48146e-06
-5.65648e-06
3.35448e-06
-7.66479e-06
4.20879e-06
-8.80484e-06
5.04511e-06
-9.37452e-06
5.8657e-06
-9.57567e-06
6.6719e-06
-9.54408e-06
7.46389e-06
-9.37069e-06
8.24114e-06
-9.11598e-06
9.00281e-06
-8.81965e-06
9.74799e-06
-8.50719e-06
1.04759e-05
-8.19423e-06
1.11858e-05
-7.88962e-06
1.18771e-05
-7.59744e-06
1.25492e-05
-7.31848e-06
1.32015e-05
-7.05111e-06
1.38333e-05
-6.79193e-06
1.44436e-05
-6.53621e-06
1.5031e-05
-6.27808e-06
1.55938e-05
-6.01073e-06
1.613e-05
-5.72644e-06
1.66367e-05
-5.41659e-06
1.71107e-05
-5.07152e-06
1.75479e-05
-4.68034e-06
1.79437e-05
-4.23068e-06
1.82924e-05
-3.7085e-06
1.85876e-05
-3.09794e-06
1.88224e-05
-2.38135e-06
1.8989e-05
-1.53931e-06
1.90797e-05
-5.50547e-07
1.90869e-05
6.08304e-07
1.90039e-05
1.96223e-06
1.8825e-05
3.53644e-06
1.85465e-05
5.35397e-06
1.81669e-05
7.43194e-06
1.7686e-05
9.77578e-06
1.71034e-05
1.23699e-05
1.64122e-05
1.51611e-05
1.55893e-05
1.80309e-05
1.45794e-05
2.07457e-05
1.32748e-05
2.28913e-05
1.14818e-05
2.3767e-05
8.91278e-06
2.24007e-05
5.20147e-06
1.70935e-05
5.14586e-06
8.05679e-07
1.76723e-06
1.76407e-06
-3.30167e-06
2.71574e-06
-6.60814e-06
3.62346e-06
-8.57251e-06
4.48787e-06
-9.66925e-06
5.31851e-06
-1.02052e-05
6.1242e-06
-1.03814e-05
6.91071e-06
-1.03306e-05
7.68109e-06
-1.01411e-05
8.43651e-06
-9.8714e-06
9.17713e-06
-9.56027e-06
9.90255e-06
-9.23261e-06
1.06121e-05
-8.90383e-06
1.13052e-05
-8.58269e-06
1.1981e-05
-8.27327e-06
1.26389e-05
-7.97631e-06
1.32779e-05
-7.69014e-06
1.38972e-05
-7.41124e-06
1.44957e-05
-7.13466e-06
1.50719e-05
-6.85427e-06
1.5624e-05
-6.5629e-06
1.615e-05
-6.2524e-06
1.66471e-05
-5.9137e-06
1.71122e-05
-5.53661e-06
1.75415e-05
-5.10968e-06
1.79307e-05
-4.6199e-06
1.82747e-05
-4.05251e-06
1.85678e-05
-3.39097e-06
1.88035e-05
-2.6171e-06
1.89754e-05
-1.71119e-06
1.90769e-05
-6.52025e-07
1.91019e-05
5.83245e-07
1.90455e-05
2.0187e-06
1.89037e-05
3.67819e-06
1.86747e-05
5.58295e-06
1.83586e-05
7.74808e-06
1.79567e-05
1.01777e-05
1.74689e-05
1.28577e-05
1.68878e-05
1.57422e-05
1.61878e-05
1.87309e-05
1.53061e-05
2.16274e-05
1.41169e-05
2.40805e-05
1.23911e-05
2.54928e-05
9.77466e-06
2.50172e-05
5.82869e-06
2.10395e-05
1.0974e-05
8.71127e-07
8.96107e-07
1.91649e-06
-4.34703e-06
2.92652e-06
-7.61817e-06
3.86348e-06
-9.50946e-06
4.73586e-06
-1.05416e-05
5.56091e-06
-1.10302e-05
6.35313e-06
-1.11736e-05
7.12202e-06
-1.10995e-05
7.87296e-06
-1.0892e-05
8.60858e-06
-1.0607e-05
9.3299e-06
-1.02816e-05
1.0037e-05
-9.93968e-06
1.07294e-05
-9.59623e-06
1.14064e-05
-9.25973e-06
1.20673e-05
-8.93416e-06
1.27112e-05
-8.62017e-06
1.3337e-05
-8.31602e-06
1.39439e-05
-8.01808e-06
1.45304e-05
-7.72123e-06
1.50952e-05
-7.41908e-06
1.56365e-05
-7.10416e-06
1.61521e-05
-6.76796e-06
1.66394e-05
-6.40099e-06
1.70954e-05
-5.99266e-06
1.75168e-05
-5.53103e-06
1.78995e-05
-5.00258e-06
1.82389e-05
-4.39194e-06
1.85299e-05
-3.68201e-06
1.8767e-05
-2.85419e-06
1.89445e-05
-1.8887e-06
1.90571e-05
-7.64646e-07
1.91003e-05
5.40109e-07
1.90704e-05
2.04858e-06
1.89653e-05
3.78324e-06
1.87848e-05
5.76353e-06
1.85302e-05
8.00263e-06
1.82044e-05
1.05036e-05
1.78083e-05
1.32538e-05
1.7335e-05
1.62154e-05
1.67583e-05
1.93077e-05
1.60121e-05
2.23736e-05
1.49593e-05
2.51334e-05
1.33412e-05
2.71109e-05
1.07371e-05
2.76213e-05
6.59023e-06
2.51864e-05
1.75637e-05
9.39542e-07
-4.34349e-08
2.06085e-06
-5.46834e-06
3.11958e-06
-8.6769e-06
4.0794e-06
-1.04693e-05
4.95639e-06
-1.14186e-05
5.77489e-06
-1.18487e-05
6.55429e-06
-1.1953e-05
7.30707e-06
-1.18523e-05
8.04042e-06
-1.16253e-05
8.75808e-06
-1.13247e-05
9.46175e-06
-1.09852e-05
1.01519e-05
-1.06298e-05
1.08282e-05
-1.02725e-05
1.149e-05
-9.92158e-06
1.21365e-05
-9.58069e-06
1.27668e-05
-9.25043e-06
1.33797e-05
-8.92895e-06
1.39742e-05
-8.61253e-06
1.45488e-05
-8.29588e-06
1.51022e-05
-7.97241e-06
1.56324e-05
-7.63437e-06
1.61373e-05
-7.27293e-06
1.66146e-05
-6.87829e-06
1.70615e-05
-6.4395e-06
1.74747e-05
-5.94428e-06
1.78508e-05
-5.37867e-06
1.81857e-05
-4.72682e-06
1.84748e-05
-3.97116e-06
1.87134e-05
-3.09279e-06
1.88968e-05
-2.07203e-06
1.90207e-05
-8.88542e-07
1.90819e-05
4.78892e-07
1.90783e-05
2.05213e-06
1.90093e-05
3.85224e-06
1.88759e-05
5.89693e-06
1.86811e-05
8.19748e-06
1.8429e-05
1.07557e-05
1.81223e-05
1.35604e-05
1.77563e-05
1.65815e-05
1.73067e-05
1.97573e-05
1.67094e-05
2.29709e-05
1.5825e-05
2.60178e-05
1.43772e-05
2.85586e-05
1.18852e-05
3.01133e-05
7.60114e-06
2.94704e-05
2.51643e-05
1.01065e-06
-1.05408e-06
2.1995e-06
-6.6572e-06
3.29867e-06
-9.77607e-06
4.27487e-06
-1.14455e-05
5.15232e-06
-1.22961e-05
5.96253e-06
-1.26589e-05
6.72919e-06
-1.27196e-05
7.46703e-06
-1.25901e-05
8.1844e-06
-1.23427e-05
8.8858e-06
-1.20261e-05
9.5734e-06
-1.16728e-05
1.02479e-05
-1.13043e-05
1.09092e-05
-1.09339e-05
1.15568e-05
-1.05691e-05
1.21896e-05
-1.02135e-05
1.28067e-05
-9.86754e-06
1.3407e-05
-9.52921e-06
1.39892e-05
-9.19472e-06
1.45519e-05
-8.85864e-06
1.50937e-05
-8.5142e-06
1.56127e-05
-8.1534e-06
1.6107e-05
-7.76716e-06
1.65741e-05
-7.34541e-06
1.70115e-05
-6.87694e-06
1.74165e-05
-6.34924e-06
1.77859e-05
-5.74804e-06
1.81161e-05
-5.0571e-06
1.84034e-05
-4.25842e-06
1.86435e-05
-3.33292e-06
1.88327e-05
-2.26119e-06
1.89678e-05
-1.02364e-06
1.90469e-05
3.99815e-07
1.90692e-05
2.0298e-06
1.90354e-05
3.88604e-06
1.89478e-05
5.98455e-06
1.88107e-05
8.33461e-06
1.86299e-05
1.09364e-05
1.84108e-05
1.37795e-05
1.8152e-05
1.68403e-05
1.78348e-05
2.00745e-05
1.74031e-05
2.34026e-05
1.67275e-05
2.66934e-05
1.55347e-05
2.97514e-05
1.33062e-05
3.23418e-05
9.01224e-06
3.37644e-05
3.4176e-05
1.08336e-06
-2.13744e-06
2.33316e-06
-7.90699e-06
3.46631e-06
-1.09092e-05
4.45248e-06
-1.24317e-05
5.32568e-06
-1.31693e-05
6.12535e-06
-1.34586e-05
6.87907e-06
-1.34734e-05
7.60292e-06
-1.3314e-05
8.30581e-06
-1.30456e-05
8.99258e-06
-1.27129e-05
9.66565e-06
-1.23459e-05
1.0326e-05
-1.19646e-05
1.09735e-05
-1.15814e-05
1.16076e-05
-1.12032e-05
1.22274e-05
-1.08334e-05
1.28319e-05
-1.0472e-05
1.34198e-05
-1.01172e-05
1.399e-05
-9.76485e-06
1.45409e-05
-9.4096e-06
1.50712e-05
-9.04444e-06
1.5579e-05
-8.66118e-06
1.60623e-05
-8.25052e-06
1.65191e-05
-7.80216e-06
1.69469e-05
-7.30477e-06
1.73434e-05
-6.74571e-06
1.77058e-05
-6.11051e-06
1.80314e-05
-5.38264e-06
1.83166e-05
-4.54371e-06
1.85582e-05
-3.57451e-06
1.87531e-05
-2.45604e-06
1.88991e-05
-1.16969e-06
1.89957e-05
3.03297e-07
1.90432e-05
1.98225e-06
1.90436e-05
3.88565e-06
1.90002e-05
6.02791e-06
1.89187e-05
8.41614e-06
1.88068e-05
1.10483e-05
1.8673e-05
1.39133e-05
1.85212e-05
1.69921e-05
1.8341e-05
2.02546e-05
1.80913e-05
2.36523e-05
1.76675e-05
2.71172e-05
1.68318e-05
3.05871e-05
1.50986e-05
3.40751e-05
1.10208e-05
3.78421e-05
4.51964e-05
1.1556e-06
-3.29305e-06
2.46304e-06
-9.21443e-06
3.62499e-06
-1.20712e-05
4.61418e-06
-1.34208e-05
5.47762e-06
-1.40327e-05
6.26421e-06
-1.42452e-05
7.00472e-06
-1.42139e-05
7.71557e-06
-1.40248e-05
8.4055e-06
-1.37355e-05
9.07928e-06
-1.33866e-05
9.73941e-06
-1.30061e-05
1.03869e-05
-1.26121e-05
1.10218e-05
-1.22163e-05
1.16436e-05
-1.1825e-05
1.22512e-05
-1.1441e-05
1.28437e-05
-1.10645e-05
1.34197e-05
-1.06932e-05
1.39781e-05
-1.03232e-05
1.45175e-05
-9.94893e-06
1.50362e-05
-9.56321e-06
1.55327e-05
-9.1577e-06
1.60051e-05
-8.7229e-06
1.64514e-05
-8.2484e-06
1.68694e-05
-7.72279e-06
1.72571e-05
-7.13344e-06
1.76125e-05
-6.46585e-06
1.79331e-05
-5.70323e-06
1.82162e-05
-4.82684e-06
1.84591e-05
-3.81737e-06
1.86593e-05
-2.6563e-06
1.88159e-05
-1.32629e-06
1.89293e-05
1.89912e-07
1.90013e-05
1.91029e-06
1.90347e-05
3.85224e-06
1.90339e-05
6.0287e-06
1.90056e-05
8.4444e-06
1.89597e-05
1.10942e-05
1.89083e-05
1.39647e-05
1.88615e-05
1.70389e-05
1.88203e-05
2.02958e-05
1.87641e-05
2.37085e-05
1.8629e-05
2.72523e-05
1.8257e-05
3.09591e-05
1.72745e-05
3.50576e-05
1.37289e-05
4.13877e-05
5.89248e-05
-1.73713e-39
1.59655e-39
-8.27868e-39
8.91368e-39
-1.15895e-39
5.60978e-39
-7.80855e-41
2.73891e-40
-1.05607e-40
1.85154e-41
-1.32285e-40
1.28974e-41
-3.08583e-39
5.53797e-41
-1.16461e-37
3.47735e-40
-1.90742e-36
-7.54077e-38
-1.47336e-35
-1.51536e-36
-6.37561e-35
-1.19132e-35
-1.88919e-34
-5.35832e-35
-4.36593e-34
-1.72083e-34
-7.89547e-34
-4.48578e-34
-9.96104e-34
-9.97074e-34
-6.5761e-34
-1.86333e-33
1.12448e-33
-2.94744e-33
2.56812e-33
-1.12541e-32
2.32902e-33
-6.71674e-33
1.65847e-33
-3.81181e-33
9.28967e-34
-1.01154e-33
3.79504e-34
-4.12403e-34
9.45974e-35
-1.11706e-34
1.17709e-35
-1.74881e-35
5.93559e-37
-1.32401e-36
1.20247e-38
-4.03666e-38
1.92515e-40
-4.4919e-40
1.44336e-41
2.85381e-43
3.26236e-42
4.83017e-43
2.46772e-43
1.12022e-43
6.05517e-45
8.81496e-45
8.92136e-47
3.06816e-46
1.23675e-48
7.46627e-48
1.29097e-50
1.40334e-49
7.51999e-53
1.78895e-51
1.77386e-55
1.29574e-53
2.75975e-56
3.62362e-56
2.3961e-57
-3.33047e-38
8.88398e-38
-6.02416e-38
2.07807e-37
-1.85484e-38
1.02426e-37
-2.54674e-39
1.48794e-38
-3.04073e-39
1.99612e-39
-1.31862e-38
1.99308e-39
-8.56576e-37
5.68033e-38
-3.18248e-35
1.6932e-37
-5.47365e-34
-3.62322e-35
-4.41846e-33
-7.22091e-34
-1.91995e-32
-5.91911e-33
-5.29722e-32
-2.76687e-32
-1.04986e-31
-8.95946e-32
-1.55653e-31
-2.26198e-31
-1.52561e-31
-4.63694e-31
-4.12889e-32
-7.60442e-31
1.49007e-31
-9.93662e-31
3.57667e-31
-1.09645e-30
5.14316e-31
-1.05608e-30
4.5798e-31
-7.90935e-31
2.6952e-31
-4.35689e-31
1.04575e-31
-1.71581e-31
2.45007e-32
-4.49141e-32
3.02537e-33
-6.94458e-33
1.72286e-34
-5.52317e-34
4.37569e-36
-1.94735e-35
7.41355e-38
-2.81254e-37
3.72685e-39
-1.10698e-39
7.32324e-40
2.83938e-40
8.07863e-41
9.16984e-41
2.57822e-42
9.77444e-42
3.61499e-44
3.83344e-43
4.73222e-46
9.30347e-45
5.20106e-48
1.79164e-46
3.37829e-50
2.42802e-48
9.59279e-53
1.93774e-50
7.96407e-56
6.7027e-53
5.5853e-56
-9.42267e-37
6.74164e-36
-1.14154e-36
4.99227e-36
-5.18109e-37
2.70657e-36
-1.3879e-37
6.30188e-37
-1.65754e-37
1.51462e-37
-1.45273e-36
2.98723e-37
-9.96446e-35
8.90305e-36
-3.79421e-33
2.55555e-36
-6.72327e-32
-6.74087e-33
-5.69864e-31
-1.35128e-31
-2.63344e-30
-1.15369e-30
-7.71175e-30
-5.65133e-30
-1.59642e-29
-1.90315e-29
-2.3741e-29
-4.91601e-29
-2.22169e-29
-1.00451e-28
-3.55276e-30
-1.61955e-28
2.53994e-29
-2.06204e-28
5.59722e-29
-2.21006e-28
7.13572e-29
-2.01764e-28
5.78119e-29
-1.41113e-28
3.19945e-29
-7.3355e-29
1.19074e-29
-2.76274e-29
2.72236e-30
-7.00286e-30
3.39312e-31
-1.07099e-30
2.08366e-32
-8.77066e-32
6.16618e-34
-3.43286e-33
1.17744e-35
-5.92031e-35
4.03232e-37
-3.79206e-37
3.706e-38
3.10818e-38
2.59052e-39
6.18176e-39
8.00025e-41
5.05833e-40
1.44996e-42
2.07278e-41
2.10962e-44
5.62416e-43
2.22075e-46
1.10558e-44
1.344e-48
1.44089e-46
3.79691e-51
1.04023e-48
4.26101e-54
3.86811e-51
4.53193e-54
-1.51635e-35
1.48107e-34
-1.90685e-35
8.62503e-35
-1.18734e-35
5.67039e-35
-5.32793e-36
1.95683e-35
-6.53865e-36
7.18919e-36
-1.10749e-34
2.83603e-35
-7.91546e-33
8.47381e-34
-3.05405e-31
-2.57155e-33
-5.47088e-30
-7.65539e-31
-4.75092e-29
-1.50988e-29
-2.26478e-28
-1.2941e-28
-6.82252e-28
-6.37405e-28
-1.43306e-27
-2.17609e-27
-2.09412e-27
-5.6615e-27
-1.85115e-27
-1.14612e-26
-6.69595e-29
-1.82181e-26
2.49305e-27
-2.2851e-26
5.14358e-27
-2.41354e-26
5.97097e-27
-2.12051e-26
4.5379e-27
-1.41769e-26
2.40683e-27
-7.10159e-27
8.68188e-28
-2.59512e-27
1.94824e-28
-6.43282e-28
2.44299e-29
-9.76833e-29
1.58314e-30
-8.1766e-30
5.31027e-32
-3.45158e-31
1.14773e-33
-6.90156e-33
3.30323e-35
-5.61502e-35
1.86339e-36
2.52574e-36
9.44395e-38
3.7574e-37
2.76341e-39
2.56266e-38
5.23627e-41
1.01056e-39
7.25112e-43
2.65426e-41
6.77565e-45
4.80206e-43
3.7755e-47
5.50253e-45
1.63482e-49
3.86028e-47
2.49703e-52
1.67532e-49
2.65475e-52
-1.77835e-34
1.83596e-33
-2.65779e-34
1.20246e-33
-2.31596e-34
9.84182e-34
-1.60549e-34
4.96642e-34
-2.11136e-34
2.52619e-34
-6.66901e-33
1.99562e-33
-4.90538e-31
5.84152e-32
-1.88058e-29
-4.18367e-31
-3.32181e-28
-6.19548e-29
-2.87777e-27
-1.15606e-27
-1.38488e-26
-9.47163e-27
-4.22502e-26
-4.53857e-26
-8.87502e-26
-1.56403e-25
-1.25758e-25
-4.1032e-25
-1.03657e-25
-8.30293e-25
1.26596e-26
-1.31449e-24
1.70683e-25
-1.63441e-24
3.28121e-25
-1.70609e-24
3.52309e-25
-1.4514e-24
2.54762e-25
-9.40786e-25
1.30974e-25
-4.6195e-25
4.62531e-26
-1.66539e-25
1.02669e-26
-4.09187e-26
1.29811e-27
-6.21674e-27
8.7882e-29
-5.31454e-28
3.24699e-30
-2.38029e-29
7.89322e-32
-5.32791e-31
2.13733e-33
-5.08361e-33
9.04189e-35
1.61056e-34
3.61168e-36
2.0619e-35
9.54024e-38
1.21064e-36
1.71663e-39
4.37725e-38
2.17718e-41
1.05982e-39
1.82509e-43
1.72164e-41
1.42177e-45
1.81216e-43
6.61564e-48
1.45361e-45
1.22787e-50
6.78441e-48
1.29739e-50
-1.69113e-33
1.6495e-32
-3.09516e-33
1.42336e-32
-3.8818e-33
1.42985e-32
-4.03611e-33
1.0817e-32
-6.24907e-33
7.42916e-33
-3.39035e-31
1.12741e-31
-2.52923e-29
3.15492e-30
-9.31887e-28
-3.85926e-29
-1.56522e-26
-3.61328e-27
-1.3379e-25
-6.2412e-26
-6.67631e-25
-5.13075e-25
-2.0895e-24
-2.61591e-24
-4.34277e-24
-9.3596e-24
-5.85863e-24
-2.44663e-23
-4.38962e-24
-4.90649e-23
1.60581e-24
-7.82435e-23
9.39056e-24
-9.53855e-23
1.62702e-23
-9.52669e-23
1.61537e-23
-7.53533e-23
1.11235e-23
-4.63024e-23
5.56935e-24
-2.21746e-23
1.93899e-24
-7.94528e-24
4.28711e-25
-1.96028e-24
5.48708e-26
-3.01535e-25
3.86861e-27
-2.64567e-26
1.54875e-28
-1.24953e-27
4.12867e-30
-3.06444e-29
1.09326e-31
-3.29793e-31
3.90367e-33
8.07074e-33
1.32384e-34
9.74417e-34
3.14495e-36
5.11863e-35
5.24916e-38
1.69406e-36
6.13337e-40
3.77131e-38
6.49478e-42
5.60581e-40
5.43587e-44
6.58274e-42
2.69255e-46
5.54823e-44
5.70968e-49
2.7574e-46
5.97076e-49
-1.60557e-32
1.19207e-31
-3.4446e-32
1.5044e-31
-5.77386e-32
1.96869e-31
-7.80506e-32
2.07764e-31
-1.97357e-31
2.25803e-31
-1.5132e-29
5.37522e-30
-1.1074e-27
1.37514e-28
-3.70315e-26
-2.26833e-27
-5.72344e-25
-1.477e-25
-5.13536e-24
-2.69729e-24
-3.09516e-23
-2.98689e-23
-1.03635e-22
-2.14299e-22
-2.06953e-22
-8.07408e-22
-2.50607e-22
-1.96553e-21
-1.57506e-22
-3.5143e-21
1.29924e-22
-5.42657e-21
4.81833e-22
-6.38561e-21
7.23518e-22
-5.79342e-21
6.43722e-22
-3.93559e-21
4.12914e-22
-2.10881e-21
1.98087e-22
-9.15127e-22
6.74433e-23
-3.10056e-22
1.48557e-23
-7.52717e-23
1.93313e-24
-1.1742e-23
1.42351e-25
-1.06802e-24
6.15212e-27
-5.3518e-26
1.78709e-28
-1.43692e-27
4.72185e-30
-1.72774e-29
1.49674e-31
3.36026e-31
4.50388e-33
4.0001e-32
9.83097e-35
1.94031e-33
1.54092e-36
5.98996e-35
1.90883e-38
1.24768e-36
2.39224e-40
1.91145e-38
2.09316e-42
2.42046e-40
1.09625e-44
2.13229e-42
2.5691e-47
1.12113e-44
2.65453e-47
-1.11126e-31
7.29256e-31
-3.67706e-31
1.54482e-30
-8.37967e-31
2.92165e-30
-1.66198e-30
4.75384e-30
-8.37591e-30
1.07209e-29
-6.055e-28
2.3028e-28
-4.11044e-26
4.90259e-27
-1.26309e-24
-1.12925e-25
-1.89009e-23
-7.2344e-24
-1.98008e-22
-1.67824e-22
-1.65899e-21
-2.6418e-21
-5.76778e-21
-2.42352e-20
-1.04945e-20
-8.56993e-20
-1.03275e-20
-1.8672e-19
-4.16624e-21
-2.80517e-19
8.90386e-21
-3.7864e-19
2.40996e-20
-4.39124e-19
3.16684e-20
-3.88542e-19
2.52563e-20
-2.48497e-19
1.46689e-20
-1.165e-19
6.47002e-21
-4.24744e-20
2.07272e-21
-1.21477e-20
4.4405e-22
-2.62859e-21
5.83749e-23
-3.9342e-22
4.52059e-24
-3.66398e-23
2.12783e-25
-1.96938e-24
6.78011e-27
-5.87265e-26
1.8199e-28
-7.99102e-28
5.25337e-30
1.22354e-29
1.44053e-31
1.47461e-30
2.96209e-33
6.76957e-32
4.47454e-35
1.99313e-33
6.78015e-37
4.01466e-35
8.86846e-39
6.76877e-37
8.12515e-41
8.94751e-39
4.48546e-43
8.25721e-41
1.13694e-45
4.58001e-43
1.16186e-45
-6.67481e-31
3.90511e-30
-4.70852e-30
1.70486e-29
-2.11377e-29
6.61374e-29
-7.06332e-29
2.03171e-28
-4.40662e-28
6.98154e-28
-2.16933e-26
9.5213e-27
-1.61123e-24
1.56762e-25
-6.07751e-23
-1.83478e-23
-9.44367e-22
-1.15168e-21
-8.9144e-21
-1.84433e-20
-6.3567e-20
-1.64647e-19
-1.82099e-19
-9.58428e-19
-2.86105e-19
-2.78455e-18
-2.29211e-19
-5.64599e-18
-6.5867e-21
-8.44101e-18
3.53949e-19
-1.04818e-17
7.63935e-19
-1.21051e-17
1.0264e-18
-1.20316e-17
8.72789e-19
-9.48554e-18
5.06698e-19
-5.32017e-18
2.1071e-19
-2.08805e-18
6.16592e-20
-5.58874e-19
1.22004e-20
-1.03259e-19
1.55616e-21
-1.34102e-20
1.25509e-22
-1.19208e-21
6.4966e-24
-6.78643e-23
2.28678e-25
-2.24104e-24
6.34285e-27
-3.39709e-26
1.70815e-28
3.959e-28
4.35053e-30
4.93743e-29
8.64229e-32
2.19358e-30
1.32124e-33
6.30567e-32
2.35876e-35
1.29604e-33
3.23153e-37
2.3488e-35
3.10795e-39
3.25172e-37
1.80785e-41
3.1526e-39
4.90628e-44
1.84408e-41
4.95992e-44
-5.11305e-30
2.09897e-29
-9.46351e-29
2.73036e-28
-5.9458e-28
1.80908e-27
-2.20028e-27
6.74309e-27
-1.49156e-26
2.53217e-26
-9.41621e-25
4.16282e-25
-1.36787e-22
5.1941e-24
-5.14416e-21
-3.76615e-21
-5.05093e-20
-1.00384e-19
-2.26609e-19
-7.26987e-19
-7.46633e-19
-2.65138e-18
-1.48926e-18
-7.76728e-18
-1.87033e-18
-1.82287e-17
-1.06406e-18
-3.48569e-17
1.31358e-18
-5.67798e-17
4.9396e-18
-7.6454e-17
9.17868e-18
-8.78743e-17
1.33142e-17
-9.95221e-17
1.44758e-17
-1.008e-16
1.07147e-17
-8.00415e-17
5.39301e-18
-4.57845e-17
1.72071e-18
-1.72172e-17
3.26722e-19
-3.79309e-18
3.82886e-20
-4.78816e-19
3.04859e-21
-3.95471e-20
1.69553e-22
-2.31604e-21
6.4549e-24
-8.36592e-23
1.84256e-25
-1.33113e-24
4.81533e-27
1.05953e-26
1.17787e-28
1.41454e-27
2.31848e-30
6.25081e-29
4.0726e-32
1.7984e-30
7.58376e-34
3.97835e-32
1.09004e-35
7.54074e-34
1.10404e-37
1.096e-35
6.77788e-40
1.11976e-37
1.96472e-42
6.9179e-40
1.96784e-42
-6.27086e-29
1.55281e-28
-1.55455e-27
4.21325e-27
-8.78929e-27
2.9407e-26
-3.27402e-26
1.09986e-25
-4.23701e-25
5.91874e-25
-7.72137e-23
2.07269e-23
-6.12588e-21
-3.85087e-22
-1.10272e-19
-6.1433e-20
-6.08966e-19
-8.89172e-19
-1.4097e-18
-4.21634e-18
-2.28579e-18
-9.64515e-18
-3.00857e-18
-1.8848e-17
-2.3623e-18
-3.8088e-17
1.42561e-18
-6.94561e-17
1.04037e-17
-1.18054e-16
2.45738e-17
-1.83552e-16
4.15304e-17
-2.27748e-16
6.15262e-17
-2.73704e-16
7.94351e-17
-3.229e-16
8.22849e-17
-3.35917e-16
5.88265e-17
-2.73992e-16
2.71828e-17
-1.64683e-16
6.4949e-18
-5.76979e-17
7.74198e-19
-9.69224e-18
5.80562e-20
-8.73411e-19
3.19954e-21
-5.1428e-20
1.26922e-22
-1.96354e-21
3.75562e-24
-3.36552e-23
1.00227e-25
1.95456e-25
2.4704e-27
2.94362e-26
4.95046e-29
1.34111e-27
9.46527e-31
3.96824e-29
1.8515e-32
9.31706e-31
2.80377e-34
1.85459e-32
3.00294e-36
2.83974e-34
1.95328e-38
3.06794e-36
6.15385e-41
2.00802e-38
6.10529e-41
-7.30337e-28
1.44999e-27
-1.40319e-26
4.23367e-26
-5.85284e-26
2.59296e-25
-3.70383e-25
1.18761e-24
-5.56415e-23
2.66014e-23
-4.75323e-21
1.38613e-21
-4.32314e-20
-6.25057e-21
-3.09726e-19
-1.43792e-19
-1.13581e-18
-1.2521e-18
-1.88139e-18
-4.02825e-18
-1.79613e-18
-1.07392e-17
-7.20962e-19
-2.40896e-17
2.74119e-18
-4.63679e-17
1.11401e-17
-8.35717e-17
2.88754e-17
-1.43776e-16
5.87145e-17
-2.25909e-16
9.55823e-17
-3.13469e-16
1.38198e-16
-4.08897e-16
1.88947e-16
-4.94574e-16
2.30647e-16
-5.82279e-16
2.29614e-16
-6.03337e-16
1.54887e-16
-4.80652e-16
5.42549e-17
-2.48605e-16
8.15774e-18
-6.15251e-17
6.01773e-19
-6.84158e-18
2.90161e-20
-3.93386e-19
1.14328e-21
-1.37724e-20
3.89699e-23
-2.76288e-22
1.17596e-24
1.74578e-24
3.09971e-26
3.27395e-25
6.53334e-28
1.63293e-26
1.23818e-29
5.1615e-28
2.55811e-31
1.25756e-29
4.10864e-33
2.64134e-31
4.6824e-35
4.28193e-33
3.24855e-37
4.91395e-35
1.17114e-39
3.4235e-37
1.15019e-39
-6.15956e-27
1.23179e-26
-5.97972e-26
2.88745e-25
-3.69697e-25
1.77668e-24
-7.96303e-23
5.11464e-23
-4.15292e-20
8.15933e-21
-2.79152e-19
8.72014e-20
-6.12372e-19
4.18889e-19
-3.76758e-19
-7.70208e-19
-2.40761e-19
-2.53729e-18
1.17075e-19
-2.5742e-18
2.12296e-18
2.7872e-18
6.67919e-18
-3.20679e-17
1.3971e-17
-5.75764e-17