/*--------------------------------*- C++ -*----------------------------------*\
  =========                 |
  \\      /  F ield         | OpenFOAM: The Open Source CFD Toolbox
   \\    /   O peration     | Website:  https://openfoam.org
    \\  /    A nd           | Version:  7
     \\/     M anipulation  |
\*---------------------------------------------------------------------------*/
FoamFile
{
    version     2.0;
    format      ascii;
    class       volScalarField;
    location    "0.45";
    object      epsilon;
}
// * * * * * * * * * * * * * * * * * * * * * * * * * * * * * * * * * * * * * //

dimensions      [0 2 -3 0 0 0 0];

internalField   nonuniform List<scalar> 
9072
(
0.0254819
0.0812779
0.149426
0.224533
0.295199
0.361292
0.428477
0.492151
0.553538
0.613299
0.672033
0.730212
0.788152
0.846013
0.903804
0.961406
1.01859
1.07502
1.13031
1.18399
1.23554
1.28442
1.33003
1.37177
1.40901
1.44111
1.46744
1.48732
1.50006
1.50484
1.50017
1.48978
1.47137
1.44296
1.40321
1.35105
1.28568
1.20723
1.11771
1.02124
0.920201
0.816581
0.712332
0.600694
0.490469
0.35622
0.0343582
0.0531192
0.0803451
0.110131
0.138973
0.165574
0.190287
0.213586
0.235964
0.25779
0.279355
0.300871
0.322473
0.344227
0.366139
0.38816
0.410202
0.432142
0.453829
0.475093
0.495748
0.515601
0.534452
0.552102
0.568354
0.583023
0.595935
0.60694
0.615911
0.622759
0.627466
0.63223
0.636593
0.640501
0.644203
0.648193
0.653107
0.659577
0.667957
0.677379
0.681623
0.666206
0.582141
0.456219
0.364317
0.401414
0.0457643
0.0497582
0.0699096
0.0917489
0.112571
0.131107
0.147965
0.1636
0.178419
0.192751
0.206852
0.220906
0.235031
0.249291
0.2637
0.278235
0.292843
0.307446
0.321949
0.336242
0.35021
0.36373
0.376681
0.388944
0.400409
0.410977
0.42057
0.429138
0.436669
0.443209
0.448942
0.454805
0.461173
0.468472
0.477365
0.4888
0.504014
0.52448
0.551643
0.585823
0.621224
0.638651
0.599069
0.500742
0.434413
0.583743
0.0529243
0.0511786
0.0683778
0.0868166
0.103866
0.119108
0.132832
0.14541
0.1572
0.168504
0.17956
0.190539
0.201552
0.212662
0.223891
0.235226
0.246632
0.25805
0.26941
0.28063
0.291622
0.302296
0.312563
0.322339
0.33155
0.340137
0.348061
0.355316
0.361939
0.368036
0.373841
0.379961
0.386912
0.39529
0.405906
0.419843
0.438473
0.463408
0.496235
0.537475
0.582222
0.612893
0.601636
0.548252
0.519202
0.784017
0.0576567
0.054742
0.0700643
0.0860193
0.100792
0.114059
0.12598
0.136852
0.146982
0.156641
0.166042
0.175341
0.184643
0.194009
0.20346
0.212994
0.22258
0.232175
0.24172
0.251151
0.260396
0.269383
0.278044
0.286314
0.294141
0.301487
0.308341
0.31472
0.320694
0.326398
0.332089
0.338266
0.345467
0.354352
0.365783
0.380872
0.40098
0.427649
0.462302
0.50527
0.55242
0.589631
0.598153
0.585173
0.60995
1.02239
0.0637722
0.05978
0.073234
0.0872373
0.100259
0.112035
0.122664
0.132374
0.14142
0.15003
0.158389
0.166636
0.174864
0.183127
0.191447
0.199823
0.208231
0.216635
0.224986
0.233228
0.241303
0.249152
0.256719
0.263953
0.270819
0.277294
0.283384
0.289125
0.294607
0.299987
0.305534
0.311699
0.319023
0.328182
0.340049
0.355714
0.376481
0.403767
0.438787
0.481684
0.529097
0.570624
0.594928
0.616462
0.699837
1.28001
0.0715626
0.0657412
0.0773507
0.0895951
0.101077
0.111573
0.121141
0.129949
0.138195
0.146062
0.153704
0.161234
0.168733
0.176245
0.18379
0.191367
0.198955
0.206522
0.214026
0.221419
0.228652
0.235675
0.242442
0.248915
0.255068
0.260893
0.266406
0.271662
0.276763
0.28188
0.28729
0.293421
0.300807
0.310123
0.322225
0.338168
0.359182
0.386561
0.421361
0.463657
0.510904
0.556144
0.594205
0.645216
0.783607
1.53471
0.0798559
0.072129
0.0819979
0.0925927
0.102648
0.111978
0.12061
0.128657
0.136262
0.143562
0.150674
0.157688
0.164665
0.171642
0.178633
0.185632
0.192623
0.199575
0.206452
0.213212
0.219812
0.226209
0.232367
0.238256
0.243861
0.249183
0.25425
0.259127
0.263928
0.268836
0.274128
0.280222
0.287638
0.297041
0.309261
0.325309
0.346345
0.373565
0.407935
0.449595
0.496855
0.545748
0.596217
0.672769
0.860497
1.79119
0.0881058
0.078502
0.0868245
0.0958847
0.104612
0.112862
0.120643
0.128019
0.135081
0.141922
0.148623
0.155248
0.16184
0.168422
0.175003
0.181575
0.188119
0.194607
0.201006
0.20728
0.21339
0.219301
0.224983
0.230414
0.235588
0.240514
0.24523
0.249809
0.254375
0.259117
0.264316
0.270375
0.277806
0.287252
0.299518
0.315567
0.336498
0.363444
0.397344
0.438518
0.486143
0.538774
0.600519
0.699589
0.9323
2.04063
0.0959998
0.0846407
0.0915676
0.0992226
0.106726
0.113982
0.120984
0.127758
0.134347
0.140803
0.147173
0.153494
0.159792
0.166077
0.17235
0.178598
0.184801
0.190932
0.196961
0.202855
0.20858
0.214107
0.219411
0.224479
0.229309
0.233921
0.238359
0.242705
0.247088
0.251703
0.256831
0.262864
0.2703
0.279764
0.292029
0.308016
0.328775
0.355403
0.38887
0.429754
0.478098
0.534576
0.606737
0.726467
1.00299
2.31797
0.103391
0.0904347
0.0960628
0.102438
0.108828
0.115178
0.121473
0.127704
0.133875
0.140001
0.146096
0.152175
0.158244
0.164301
0.170338
0.176337
0.182277
0.188131
0.19387
0.199464
0.204883
0.210103
0.215105
0.219882
0.224439
0.228801
0.23302
0.237183
0.241427
0.245949
0.251027
0.257045
0.264486
0.273953
0.286189
0.302077
0.32263
0.348932
0.382031
0.422811
0.472155
0.53257
0.614547
0.753772
1.07329
2.5905
0.110333
0.095874
0.100232
0.105428
0.11081
0.116345
0.122004
0.127749
0.133551
0.13939
0.145255
0.151136
0.157024
0.162903
0.168757
0.174564
0.180299
0.185935
0.191445
0.1968
0.201975
0.206949
0.211709
0.216253
0.220591
0.224756
0.228804
0.232829
0.236971
0.241429
0.246478
0.252492
0.259941
0.269405
0.281597
0.297368
0.317701
0.343689
0.376482
0.4173
0.467836
0.532219
0.62361
0.781902
1.14694
2.89094
0.11713
0.100996
0.104051
0.108139
0.112605
0.117411
0.122507
0.127824
0.133302
0.138893
0.144562
0.15028
0.156022
0.16176
0.167471
0.173128
0.178702
0.184167
0.189495
0.194659
0.199638
0.204415
0.208981
0.213338
0.217504
0.221514
0.225433
0.229356
0.233428
0.237847
0.242888
0.248912
0.256374
0.265835
0.277979
0.293626
0.31374
0.33943
0.371968
0.412911
0.464718
0.532999
0.633493
0.811235
1.22901
3.23817
0.123809
0.10581
0.107514
0.11054
0.114171
0.118333
0.122938
0.127885
0.133082
0.13846
0.143963
0.149546
0.155168
0.160795
0.166393
0.171931
0.177379
0.182707
0.18789
0.192902
0.197724
0.202343
0.206754
0.210963
0.214993
0.218886
0.222708
0.226562
0.230591
0.234996
0.240047
0.246095
0.25358
0.263043
0.275141
0.290667
0.310568
0.335978
0.36829
0.409383
0.462416
0.534355
0.643515
0.84159
1.32452
3.65646
0.130012
0.110291
0.110603
0.112603
0.115478
0.119082
0.123273
0.127906
0.132866
0.138063
0.143426
0.148895
0.15442
0.159956
0.165464
0.170908
0.176255
0.181475
0.186542
0.191432
0.196129
0.200621
0.204908
0.209001
0.212927
0.216732
0.220488
0.224298
0.228309
0.232722
0.2378
0.243886
0.251406
0.26088
0.272942
0.288356
0.308056
0.3332
0.365291
0.406494
0.460572
0.535666
0.652526
0.870955
1.43062
4.18038
0.135804
0.114369
0.113268
0.114291
0.1165
0.119643
0.123497
0.127876
0.13264
0.137686
0.142931
0.148306
0.15375
0.159212
0.164648
0.170016
0.175283
0.180416
0.18539
0.190183
0.194778
0.19917
0.203359
0.207363
0.211211
0.214954
0.218667
0.222457
0.226471
0.23091
0.236032
0.242172
0.24974
0.259237
0.271275
0.286591
0.306104
0.330991
0.362845
0.404059
0.458861
0.536259
0.658781
0.89341
1.5235
4.95725
0.0616522
0.139693
0.218019
0.270156
0.311181
0.348096
0.383931
0.419824
0.455374
0.489032
0.520446
0.548811
0.567309
0.564736
0.56482
2.39661
0.566767
0.56742
0.566594
0.566023
0.567078
0.552019
0.519902
0.482911
0.443013
0.401748
0.360628
0.322159
0.288518
0.259348
0.234076
0.211591
0.190219
0.167822
0.141969
0.110558
0.0729769
0.0361554
0.0185799
0.109512
0.158435
0.184368
0.201279
0.216262
0.232311
0.250122
0.269464
0.288659
0.307086
0.325319
0.357407
0.413092
0.437089
0.46323
0.458617
0.458698
0.45294
0.432929
0.371295
0.31087
0.286035
0.262125
0.237795
0.214155
0.192544
0.174882
0.161951
0.152993
0.147069
0.142572
0.137304
0.128771
0.11444
0.0927377
0.0608454
0.0157172
0.104762
0.112751
0.144276
0.160544
0.170463
0.180028
0.19164
0.205648
0.221405
0.237496
0.253161
0.268072
0.284625
0.305558
0.32023
0.328872
0.331462
0.328123
0.31798
0.300156
0.274415
0.25165
0.231731
0.211036
0.190118
0.170109
0.152247
0.137831
0.127758
0.121852
0.119546
0.119533
0.119625
0.116946
0.108302
0.0915193
0.0630807
0.0185682
0.153871
0.121888
0.14165
0.153365
0.161092
0.169456
0.180378
0.194013
0.209436
0.225311
0.240761
0.255177
0.268658
0.282168
0.29227
0.297864
0.29867
0.294779
0.28599
0.272519
0.255513
0.237727
0.218728
0.198596
0.178248
0.158824
0.141518
0.127482
0.117698
0.112297
0.110918
0.112464
0.11478
0.11472
0.10862
0.0938971
0.0698616
0.0869141
0.202414
0.13376
0.144595
0.153934
0.161497
0.170523
0.182493
0.197437
0.214135
0.231193
0.247589
0.262576
0.275767
0.287173
0.295451
0.299688
0.299664
0.295491
0.287225
0.275151
0.259968
0.242529
0.223133
0.202462
0.181521
0.161461
0.143476
0.128711
0.118232
0.112348
0.110816
0.112691
0.115877
0.11702
0.11209
0.0982548
0.0769686
0.103633
0.250506
0.147641
0.151385
0.159705
0.168416
0.179422
0.193774
0.211377
0.230622
0.249939
0.268087
0.284195
0.297801
0.308646
0.316009
0.319304
0.318453
0.313628
0.304969
0.292691
0.277181
0.258918
0.238459
0.216615
0.194413
0.173024
0.153669
0.137537
0.125793
0.118862
0.116547
0.117999
0.121192
0.122654
0.118068
0.104469
0.0849433
0.123004
0.299233
0.163384
0.161502
0.170036
0.181168
0.195526
0.213709
0.235442
0.25857
0.281237
0.301854
0.319399
0.333529
0.344088
0.350626
0.352797
0.350692
0.344604
0.334753
0.321315
0.304542
0.284845
0.262839
0.239348
0.215401
0.192181
0.170952
0.152976
0.139533
0.131142
0.127589
0.128061
0.130585
0.131645
0.12673
0.112774
0.0941405
0.145244
0.349733
0.181193
0.175052
0.185269
0.200454
0.219967
0.243891
0.271568
0.300118
0.327327
0.351068
0.370105
0.384428
0.394301
0.399546
0.399966
0.395831
0.387639
0.375761
0.360374
0.341667
0.320019
0.296027
0.270484
0.244389
0.21893
0.195412
0.175185
0.159668
0.14947
0.144311
0.143345
0.144613
0.144598
0.138671
0.123654
0.104949
0.170932
0.403421
0.201694
0.192776
0.206688
0.228292
0.255619
0.288053
0.323924
0.359555
0.392471
0.419766
0.439884
0.45346
0.461607
0.464547
0.46214
0.4548
0.443352
0.428431
0.410252
0.388931
0.364797
0.338394
0.310439
0.281867
0.253839
0.227694
0.204877
0.186962
0.174668
0.167598
0.16481
0.164292
0.162524
0.154815
0.137861
0.11793
0.200953
0.462314
0.226292
0.216493
0.236971
0.268552
0.307774
0.352882
0.399483
0.443477
0.482728
0.513366
0.533307
0.544271
0.548849
0.547871
0.541094
0.528932
0.512683
0.493436
0.471477
0.446792
0.419609
0.390395
0.359747
0.328479
0.297678
0.268688
0.243049
0.222507
0.207919
0.198727
0.193819
0.191046
0.186833
0.176444
0.156463
0.133917
0.23673
0.529493
0.258011
0.250325
0.281322
0.328051
0.385389
0.449352
0.508684
0.560679
0.605223
0.637604
0.654805
0.660041
0.658219
0.651096
0.638005
0.619023
0.59605
0.570926
0.544076
0.515241
0.484476
0.452144
0.418678
0.384692
0.35113
0.319289
0.290788
0.267565
0.250653
0.239295
0.232123
0.226733
0.219395
0.205289
0.180929
0.15412
0.280505
0.610117
0.303293
0.303709
0.349853
0.418421
0.502596
0.593097
0.664917
0.720653
0.765986
0.796187
0.806512
0.801618
0.789608
0.77359
0.75208
0.724217
0.692424
0.659727
0.626886
0.593232
0.558508
0.522967
0.486838
0.450445
0.414485
0.380134
0.349057
0.323401
0.304435
0.291162
0.281854
0.273699
0.262641
0.243662
0.213262
0.180271
0.335695
0.713103
0.37584
0.39873
0.462391
0.558844
0.679273
0.801332
0.879935
0.928769
0.965271
0.98654
0.984801
0.964985
0.938496
0.910571
0.878891
0.840667
0.798301
0.756515
0.716859
0.678087
0.639396
0.60094
0.562751
0.524766
0.487307
0.451319
0.41845
0.391083
0.370813
0.356365
0.345519
0.334843
0.319699
0.294648
0.256216
0.214847
0.407381
0.856077
0.507289
0.585009
0.655855
0.778278
0.93634
1.08098
1.15063
1.17599
1.18974
1.19387
1.17591
1.13775
1.09336
1.05117
1.00867
0.960153
0.906746
0.855127
0.808498
0.765023
0.723002
0.682511
0.643486
0.605408
0.568085
0.532074
0.498902
0.471232
0.451135
0.43701
0.425977
0.413698
0.394573
0.362376
0.313641
0.261467
0.503009
1.08425
0.757791
0.950381
0.982357
1.1053
1.2719
1.39764
1.43415
1.42375
1.40446
1.38549
1.35074
1.29527
1.23319
1.17672
1.12495
1.06894
1.00665
0.946198
0.893618
0.84696
0.803198
0.762321
0.724439
0.688596
0.653954
0.620492
0.589426
0.563737
0.546346
0.535153
0.526416
0.514532
0.492381
0.452396
0.391024
0.325697
0.633588
1.75124
1.26779
1.53661
1.43583
1.48585
1.57497
1.61457
1.62686
1.59372
1.54578
1.50811
1.4641
1.39929
1.32581
1.25981
1.20411
1.14751
1.08254
1.01733
0.961594
0.914678
0.871995
0.833318
0.799358
0.768948
0.740551
0.713344
0.687906
0.66744
0.656769
0.652673
0.650352
0.642479
0.619659
0.57216
0.49623
0.416646
0.817588
0.141866
0.11879
0.116074
0.115992
0.117491
0.120159
0.123661
0.12776
0.132298
0.137161
0.142259
0.147513
0.152853
0.158222
0.163565
0.168838
0.174004
0.179029
0.183886
0.188557
0.193027
0.197294
0.201364
0.205259
0.209016
0.212691
0.216364
0.220146
0.224186
0.228683
0.23389
0.240127
0.247789
0.257347
0.26937
0.28456
0.303804
0.328296
0.359727
0.400732
0.455979
0.53511
0.661107
0.898407
1.45815
3.06979
0.146712
0.122781
0.118021
0.116799
0.117784
0.1202
0.123515
0.127432
0.131796
0.136505
0.14147
0.146611
0.151854
0.157133
0.162391
0.167578
0.172653
0.177582
0.182339
0.186905
0.191269
0.195434
0.199411
0.203229
0.206932
0.210584
0.214272
0.218108
0.222246
0.226883
0.232264
0.238697
0.24655
0.25626
0.268345
0.283446
0.302396
0.326357
0.357022
0.396995
0.450705
0.526604
0.642659
0.841345
1.23208
2.06765
0.14518
0.123185
0.117312
0.115938
0.117116
0.119703
0.123074
0.126963
0.131259
0.135889
0.140778
0.14585
0.15103
0.156252
0.161455
0.166587
0.171606
0.176478
0.181174
0.185678
0.189983
0.194091
0.198022
0.201808
0.205501
0.209171
0.21291
0.216837
0.221108
0.225921
0.231518
0.238192
0.246291
0.256216
0.268437
0.283525
0.302236
0.325654
0.355362
0.393688
0.444346
0.513771
0.613904
0.768283
1.02425
1.44343
0.137736
0.119978
0.114724
0.114244
0.116079
0.11899
0.122479
0.126393
0.130678
0.135282
0.140141
0.145182
0.150335
0.155532
0.160714
0.165825
0.170822
0.175669
0.180341
0.18482
0.189101
0.193188
0.197105
0.20089
0.204599
0.208308
0.212114
0.216143
0.220559
0.22557
0.231417
0.238379
0.246778
0.256987
0.269432
0.284611
0.303183
0.326125
0.35483
0.391208
0.438115
0.500028
0.584041
0.701502
0.868708
1.09066
0.131183
0.116629
0.113318
0.113524
0.115709
0.118685
0.122155
0.126049
0.130322
0.134914
0.139757
0.144781
0.14992
0.15511
0.160291
0.165407
0.170402
0.175246
0.179913
0.184387
0.188662
0.192747
0.196667
0.200466
0.204203
0.207958
0.211828
0.215946
0.220493
0.225701
0.231831
0.239136
0.247901
0.258462
0.271222
0.286631
0.305247
0.327913
0.355741
0.390122
0.433125
0.487679
0.557536
0.647349
0.761126
0.893506
0.217633
0.132228
0.118992
0.116726
0.117352
0.119596
0.122735
0.12646
0.130632
0.135156
0.139948
0.144935
0.150044
0.155208
0.160389
0.165638
0.170695
0.175532
0.180182
0.184635
0.188887
0.19295
0.196854
0.20065
0.204407
0.208207
0.212139
0.216335
0.220999
0.22641
0.23288
0.240577
0.24973
0.260614
0.273692
0.289429
0.308385
0.331216
0.358493
0.390984
0.430264
0.478159
0.536263
0.606001
0.687413
0.775089
0.546627
0.255204
0.214267
0.195069
0.180307
0.172421
0.168357
0.166553
0.166221
0.166861
0.168153
0.169874
0.171796
0.173682
0.175215
0.175951
0.177619
0.180448
0.183821
0.187406
0.191044
0.19466
0.198233
0.201774
0.205322
0.208934
0.2127
0.216756
0.221303
0.226844
0.234264
0.242956
0.253163
0.264389
0.277362
0.292999
0.312526
0.336261
0.363301
0.393928
0.430019
0.472309
0.520898
0.576072
0.637071
0.69988
0.666071
0.314031
0.261009
0.232691
0.218157
0.210182
0.205394
0.202502
0.200978
0.200526
0.20095
0.202117
0.203927
0.20631
0.209226
0.212677
0.21667
0.221099
0.225865
0.230914
0.236225
0.2418
0.247645
0.253761
0.260117
0.266606
0.272933
0.278289
0.280719
0.275984
0.248416
0.246488
0.254351
0.265364
0.27961
0.296466
0.320433
0.347528
0.371634
0.399111
0.432983
0.470695
0.511362
0.556053
0.603859
0.65155
0.627958
0.313327
0.2723
0.255164
0.245693
0.240075
0.236443
0.233992
0.23244
0.231676
0.231637
0.232273
0.233545
0.235415
0.237849
0.240824
0.244341
0.248411
0.253034
0.258218
0.263991
0.270401
0.277513
0.285402
0.29413
0.303706
0.313968
0.324314
0.333354
0.339135
0.342392
0.349973
0.3581
0.354883
0.306197
0.303046
0.324912
0.353682
0.377073
0.408659
0.445468
0.476498
0.508654
0.546006
0.585377
0.622622
0.582328
0.311718
0.278217
0.266842
0.261016
0.257663
0.255598
0.254274
0.253487
0.25318
0.253344
0.253983
0.255106
0.256722
0.25884
0.261479
0.264669
0.268457
0.272893
0.278035
0.283959
0.290763
0.29857
0.307518
0.317744
0.329345
0.342292
0.356282
0.370663
0.384875
0.399974
0.417937
0.436676
0.447631
0.446579
0.44969
0.453834
0.41067
0.38584
0.414047
0.454589
0.482589
0.513249
0.549547
0.583921
0.61171
0.559804
0.317384
0.283388
0.272766
0.268179
0.266034
0.265122
0.26489
0.265085
0.265607
0.266428
0.267554
0.26901
0.270832
0.273061
0.275747
0.278952
0.282746
0.287212
0.292443
0.29855
0.305668
0.313953
0.323575
0.334705
0.347479
0.361938
0.377954
0.39524
0.413628
0.433672
0.456414
0.481377
0.50485
0.524672
0.544542
0.56247
0.565109
0.565803
0.572922
0.528247
0.49164
0.516423
0.552981
0.588823
0.6133
0.556769
0.32765
0.288211
0.275354
0.270172
0.268192
0.267851
0.268421
0.269523
0.270963
0.272651
0.274559
0.276695
0.279096
0.281811
0.284907
0.288459
0.292559
0.297308
0.302821
0.309234
0.316699
0.325388
0.335485
0.347169
0.36059
0.37583
0.392867
0.411606
0.432037
0.454512
0.479623
0.507178
0.53544
0.563081
0.591515
0.621281
0.647743
0.671015
0.693254
0.701264
0.705895
0.722891
0.735102
0.653278
0.628758
0.561251
0.33799
0.291837
0.27558
0.268857
0.266357
0.266099
0.267128
0.268919
0.271174
0.273728
0.276502
0.279472
0.282654
0.286089
0.289842
0.293994
0.298641
0.303895
0.309884
0.316752
0.324662
0.33379
0.344323
0.356441
0.370302
0.386018
0.403639
0.423181
0.444708
0.468452
0.494722
0.523402
0.553608
0.584536
0.616691
0.650649
0.684509
0.717279
0.750599
0.78098
0.807077
0.836652
0.863739
0.874022
0.889149
0.572325
0.347192
0.293907
0.273986
0.265392
0.262029
0.261523
0.262707
0.264929
0.267798
0.271084
0.274655
0.27845
0.282458
0.286701
0.291233
0.296127
0.301479
0.3074
0.314021
0.321489
0.329968
0.339634
0.350672
0.363264
0.377574
0.393738
0.411857
0.432009
0.454293
0.478868
0.505887
0.535261
0.566503
0.599102
0.633086
0.668576
0.704718
0.740761
0.777121
0.812224
0.844421
0.87797
0.9141
0.945233
0.970307
0.589897
0.354971
0.294459
0.271001
0.260526
0.256174
0.255224
0.256335
0.25875
0.262012
0.265837
0.270052
0.274564
0.279332
0.28436
0.289683
0.295364
0.30149
0.308168
0.315523
0.323702
0.332863
0.343182
0.354841
0.36802
0.382894
0.399616
0.418319
0.43912
0.462132
0.487477
0.515236
0.545335
0.577476
0.611287
0.646585
0.683218
0.72062
0.758122
0.795457
0.831713
0.865933
0.899814
0.934468
0.966571
0.993908
0.612754
0.361179
0.293653
0.266962
0.254738
0.24939
0.247896
0.248775
0.251194
0.254647
0.258815
0.263495
0.268567
0.27397
0.279687
0.285738
0.292173
0.299067
0.30652
0.314651
0.323599
0.33352
0.344584
0.35697
0.370861
0.386436
0.403862
0.423295
0.444872
0.46872
0.494942
0.523594
0.554618
0.587808
0.622872
0.659538
0.697512
0.736283
0.775217
0.813768
0.851193
0.886803
0.921033
0.9543
0.98513
1.01213
0.638787
0.365663
0.291639
0.262111
0.248329
0.242038
0.239962
0.24051
0.242794
0.246274
0.25061
0.255579
0.261045
0.266931
0.273204
0.279872
0.286973
0.294572
0.30276
0.311649
0.321371
0.332077
0.343933
0.357115
0.371806
0.38819
0.406446
0.426742
0.44923
0.474047
0.501294
0.531024
0.563197
0.597659
0.634168
0.672429
0.71208
0.752615
0.793408
0.833805
0.873084
0.910584
0.946131
0.979641
1.01031
1.03724
0.665685
0.368332
0.288554
0.256622
0.241496
0.234343
0.231688
0.231849
0.233901
0.237285
0.241645
0.246749
0.252451
0.258663
0.265345
0.272495
0.280141
0.288341
0.297177
0.306756
0.317205
0.328668
0.341309
0.355301
0.370827
0.388076
0.407231
0.428473
0.451964
0.47785
0.506241
0.537194
0.570689
0.606612
0.644754
0.684826
0.726445
0.769105
0.812183
0.854987
0.896773
0.936832
0.974673
1.00989
1.04182
1.06976
0.691461
0.369212
0.284541
0.250636
0.234379
0.226463
0.223252
0.223003
0.224762
0.227958
0.232229
0.237339
0.243137
0.24953
0.256474
0.263961
0.272014
0.280686
0.290054
0.300219
0.311304
0.32345
0.336816
0.351576
0.367912
0.386016
0.406077
0.428281
0.452804
0.479797
0.509382
0.541628
0.576537
0.614024
0.653911
0.695925
0.739687
0.784701
0.830348
0.875924
0.920661
0.963794
1.00464
1.04259
1.07694
1.10697
0.714679
0.36844
0.279757
0.244282
0.227096
0.218517
0.214791
0.214129
0.21556
0.218505
0.222601
0.227612
0.233386
0.23983
0.246899
0.254582
0.262901
0.271905
0.281669
0.292291
0.303891
0.316607
0.330598
0.346035
0.363102
0.381992
0.4029
0.426018
0.451529
0.479596
0.51035
0.543877
0.580197
0.619253
0.660895
0.704872
0.750822
0.798263
0.846591
0.895098
0.943002
0.989487
1.03376
1.07504
1.11255
1.14548
0.734455
0.366219
0.274363
0.237676
0.219747
0.210607
0.206414
0.205351
0.206437
0.20909
0.212948
0.217778
0.22343
0.229814
0.236885
0.244633
0.253081
0.262277
0.272295
0.283232
0.295207
0.308357
0.32284
0.338827
0.356503
0.376063
0.397707
0.421631
0.448027
0.477067
0.508894
0.543609
0.581252
0.62179
0.665099
0.710954
0.759014
0.808818
0.859778
0.911194
0.962274
1.01217
1.06
1.10489
1.14595
1.18225
0.750363
0.362774
0.268507
0.230923
0.21242
0.202815
0.19821
0.19677
0.197508
0.199845
0.203422
0.208009
0.213461
0.219691
0.226659
0.234356
0.242806
0.25206
0.262193
0.273302
0.285505
0.29894
0.313765
0.330152
0.348287
0.368367
0.390595
0.415175
0.442304
0.472164
0.50491
0.540658
0.579467
0.621325
0.666134
0.713694
0.763689
0.81568
0.869099
0.923258
0.977362
1.03054
1.08186
1.13036
1.17507
1.21494
0.762311
0.358318
0.262317
0.224112
0.205186
0.195209
0.190248
0.188461
0.18886
0.190871
0.194139
0.198439
0.203632
0.209636
0.216412
0.223958
0.232301
0.241493
0.25161
0.262753
0.27504
0.28861
0.303622
0.320247
0.338676
0.359107
0.381747
0.406804
0.434484
0.464976
0.498449
0.53503
0.574799
0.617765
0.663851
0.712884
0.764571
0.818497
0.874116
0.930752
0.987615
1.04382
1.0984
1.15034
1.19858
1.24199
0.770424
0.353034
0.255893
0.217309
0.198096
0.187835
0.182577
0.180478
0.180557
0.182243
0.185188
0.189174
0.194065
0.199786
0.206303
0.213617
0.221758
0.230783
0.240771
0.251822
0.264059
0.277621
0.292667
0.309373
0.327928
0.348536
0.371405
0.396751
0.424784
0.455705
0.489691
0.526887
0.567386
0.611218
0.65833
0.708569
0.761669
0.817238
0.874748
0.933541
0.992832
1.05173
1.10924
1.16433
1.21586
1.26262
0.774956
0.347075
0.249313
0.210562
0.191186
0.180724
0.175226
0.172855
0.172638
0.17401
0.176631
0.180288
0.184851
0.19025
0.196456
0.203474
0.21134
0.220112
0.229872
0.240724
0.25279
0.266214
0.281156
0.297793
0.316316
0.336932
0.359854
0.385302
0.413494
0.444639
0.478925
0.516511
0.557506
0.60196
0.649839
0.701014
0.75524
0.812147
0.871228
0.931838
0.993202
1.05443
1.11451
1.17238
1.22688
1.27671
0.776223
0.340566
0.242634
0.203903
0.184477
0.173891
0.16821
0.165609
0.165125
0.166202
0.168506
0.17183
0.176052
0.181105
0.186965
0.193643
0.201176
0.209627
0.219081
0.229643
0.241439
0.254614
0.269329
0.285764
0.304113
0.324584
0.347396
0.372774
0.400942
0.432118
0.466504
0.50427
0.545542
0.590386
0.638791
0.690646
0.745729
0.803688
0.864034
0.926138
0.989232
1.05242
1.11472
1.17501
1.23211
1.2847
0.774566
0.333609
0.2359
0.197353
0.177978
0.167341
0.161531
0.158743
0.158024
0.158829
0.160831
0.16383
0.167708
0.172404
0.177899
0.184206
0.191366
0.199446
0.208534
0.218737
0.230182
0.243017
0.257404
0.273525
0.291577
0.311772
0.334332
0.359488
0.387472
0.418512
0.45282
0.490581
0.531936
0.57697
0.62569
0.678004
0.733709
0.792471
0.853818
0.917132
0.981655
1.0465
1.11066
1.17305
1.23244
1.28749
0.770332
0.326294
0.229145
0.190927
0.171693
0.16107
0.155183
0.152249
0.15133
0.151891
0.153612
0.156299
0.15984
0.164179
0.169299
0.17522
0.181984
0.18966
0.19834
0.208132
0.219166
0.231589
0.245569
0.261287
0.278944
0.298754
0.320946
0.345755
0.373423
0.404188
0.438272
0.475876
0.517158
0.562219
0.611084
0.663682
0.719825
0.779196
0.841336
0.905638
0.971353
1.0376
1.10337
1.16759
1.22902
1.2863
0.763859
0.318697
0.222398
0.184633
0.165619
0.15507
0.149155
0.146116
0.145031
0.145376
0.14684
0.149234
0.152453
0.156442
0.161191
0.166721
0.173077
0.180332
0.188578
0.197926
0.208506
0.22047
0.233983
0.249232
0.266419
0.285762
0.307496
0.331863
0.359113
0.389495
0.423245
0.460579
0.501671
0.546641
0.595532
0.64829
0.704745
0.764594
0.827388
0.89253
0.959277
1.02676
1.09398
1.15985
1.22318
1.28258
0.755475
0.310889
0.215684
0.178481
0.159756
0.149332
0.143432
0.140326
0.139108
0.139268
0.1405
0.142625
0.14554
0.149196
0.153584
0.158728
0.164677
0.171505
0.179305
0.188191
0.198294
0.209766
0.222775
0.237509
0.254175
0.272995
0.294208
0.318065
0.344826
0.374751
0.408092
0.44508
0.485909
0.530716
0.579563
0.632415
0.689118
0.749379
0.812762
0.878676
0.946389
1.01504
1.08364
1.15115
1.21637
1.27795
0.745496
0.302935
0.209031
0.172478
0.154101
0.143848
0.138002
0.134862
0.133543
0.133546
0.134575
0.136455
0.139089
0.14243
0.146474
0.151246
0.156798
0.163204
0.170559
0.178978
0.188594
0.199559
0.212044
0.226239
0.242354
0.260616
0.28127
0.304577
0.330807
0.360233
0.393124
0.429729
0.470261
0.514877
0.563662
0.616595
0.673539
0.734216
0.798196
0.864899
0.933602
1.00346
1.07351
1.14274
1.21002
1.27403
0.734226
0.294899
0.202463
0.166636
0.148655
0.138611
0.132851
0.129708
0.128317
0.128191
0.129043
0.130704
0.13308
0.13613
0.139851
0.14427
0.14944
0.155437
0.162358
0.170317
0.179448
0.189906
0.201863
0.215511
0.231064
0.248754
0.268835
0.291575
0.317257
0.346172
0.378603
0.41482
0.455058
0.499498
0.548244
0.601296
0.658532
0.719687
0.784343
0.851928
0.921733
0.992935
1.06463
1.13584
1.20552
1.27243
0.721954
0.286841
0.196009
0.160967
0.14342
0.133616
0.127969
0.124849
0.123411
0.123182
0.123882
0.125349
0.127494
0.130277
0.133699
0.137787
0.142597
0.148205
0.154709
0.162223
0.170884
0.180845
0.192282
0.20539
0.220385
0.237507
0.257017
0.279194
0.304336
0.332748
0.364735
0.400589
0.440569
0.48488
0.533649
0.586899
0.644525
0.706274
0.771741
0.840369
0.911469
0.984255
1.05788
1.13146
1.20408
1.27461
0.708955
0.27882
0.189696
0.155485
0.138401
0.12886
0.123348
0.120273
0.118811
0.1185
0.119073
0.120371
0.122308
0.12485
0.127997
0.131781
0.136255
0.141499
0.147608
0.154699
0.16291
0.172394
0.183329
0.195914
0.210369
0.22694
0.245898
0.267533
0.292158
0.320097
0.351677
0.387214
0.426995
0.47125
0.520135
0.573693
0.631841
0.694341
0.760801
0.830684
0.903332
0.978014
1.05397
1.13045
1.20669
1.28177
0.695486
0.270896
0.183556
0.150206
0.133606
0.124344
0.118984
0.115969
0.114501
0.11413
0.114596
0.115747
0.117501
0.119827
0.122726
0.12623
0.130396
0.135301
0.141042
0.147738
0.155524
0.164557
0.175017
0.187104
0.201045
0.217093
0.235527
0.256653
0.280798
0.308307
0.339531
0.374814
0.41447
0.458763
0.507873
0.561872
0.620695
0.684126
0.75179
0.823175
0.897666
0.974606
1.05336
1.13335
1.21405
1.29481
0.681788
0.263127
0.177618
0.145147
0.129042
0.12007
0.114871
0.111931
0.110471
0.110056
0.110433
0.111458
0.113053
0.115186
0.117862
0.121113
0.124998
0.129592
0.134994
0.141323
0.148714
0.157326
0.167341
0.178962
0.192422
0.207981
0.225929
0.246585
0.270295
0.297425
0.328353
0.363452
0.403069
0.447498
0.496952
0.551532
0.611196
0.675748
0.744836
0.817979
0.894622
0.974205
1.05625
1.14043
1.22652
1.31423
0.668081
0.25557
0.171914
0.140328
0.124719
0.116041
0.11101
0.108152
0.106711
0.106265
0.106571
0.107488
0.108942
0.110905
0.113382
0.116407
0.120037
0.124349
0.129442
0.135433
0.14246
0.150684
0.160286
0.171476
0.184491
0.199599
0.217101
0.237332
0.260655
0.287461
0.318156
0.353143
0.392804
0.43747
0.487387
0.542684
0.603348
0.669205
0.739928
0.815078
0.894169
0.976769
1.0626
1.15164
1.24407
1.34007
0.65457
0.24828
0.166473
0.135765
0.120649
0.112261
0.107399
0.104628
0.103213
0.102747
0.102994
0.103819
0.105152
0.106965
0.109266
0.112088
0.115489
0.119546
0.124358
0.130043
0.136738
0.144605
0.153829
0.164623
0.17723
0.191926
0.209024
0.228873
0.251858
0.278394
0.308914
0.343858
0.383644
0.428638
0.479123
0.535263
0.597069
0.664393
0.736939
0.814312
0.896111
0.982055
1.07212
1.16664
1.26631
1.37191
0.641441
0.241308
0.161325
0.131478
0.11684
0.108736
0.10404
0.101356
0.0999722
0.099493
0.0996915
0.100438
0.101664
0.103346
0.105491
0.108133
0.111329
0.115158
0.119716
0.125123
0.131517
0.139059
0.147939
0.158371
0.170606
0.184927
0.20166
0.22117
0.243861
0.270174
0.300574
0.335534
0.37551
0.42091
0.472053
0.529136
0.5922
0.661124
0.73564
0.815405
0.900113
0.989654
1.08429
1.18481
1.29248
1.40884
0.628859
0.234705
0.156497
0.127481
0.113304
0.105471
0.100934
0.0983348
0.0969822
0.0964946
0.0966524
0.0973306
0.0984642
0.10003
0.102037
0.104519
0.107534
0.111157
0.115488
0.120644
0.126764
0.134012
0.142578
0.152681
0.164577
0.178559
0.194963
0.21417
0.236606
0.262737
0.293058
0.32808
0.368298
0.414159
0.466024
0.524124
0.588529
0.659142
0.735727
0.817993
0.905732
0.999025
1.09845
1.20529
1.32152
1.44953
0.616976
0.228516
0.152015
0.123792
0.11005
0.102471
0.098082
0.0955616
0.0942392
0.0937452
0.0938675
0.0944857
0.0955374
0.0970011
0.0988859
0.101226
0.104078
0.107519
0.111645
0.116575
0.122448
0.129428
0.137709
0.147512
0.159099
0.172771
0.188877
0.207811
0.230021
0.255999
0.286272
0.321386
0.361877
0.408234
0.460858
0.520014
0.585802
0.65815
0.736849
0.821655
0.912462
1.00954
1.11381
1.22708
1.3521
1.49224
0.605921
0.222782
0.1479
0.120423
0.107086
0.0997409
0.0954861
0.093036
0.0917396
0.0912387
0.0913283
0.0918923
0.0928708
0.0942433
0.0960193
0.0982327
0.10094
0.104216
0.108158
0.112884
0.118533
0.12527
0.13329
0.142818
0.154122
0.16751
0.18334
0.202025
0.22403
0.249873
0.280113
0.315332
0.356106
0.402967
0.456355
0.516572
0.583747
0.657828
0.738629
0.825946
0.91976
1.02053
1.1295
1.24904
1.38272
1.53497
0.59581
0.217539
0.144173
0.117388
0.10442
0.0972845
0.0931475
0.0907569
0.0894801
0.0889697
0.0890274
0.0895408
0.0904523
0.0917423
0.0934204
0.0955201
0.0980965
0.101225
0.105001
0.109542
0.114986
0.121501
0.129281
0.138556
0.149596
0.162718
0.178291
0.196741
0.218552
0.244267
0.274474
0.309792
0.350837