/*--------------------------------*- C++ -*----------------------------------*\
  =========                 |
  \\      /  F ield         | OpenFOAM: The Open Source CFD Toolbox
   \\    /   O peration     | Website:  https://openfoam.org
    \\  /    A nd           | Version:  7
     \\/     M anipulation  |
\*---------------------------------------------------------------------------*/
FoamFile
{
    version     2.0;
    format      ascii;
    class       volScalarField;
    location    "0.45";
    object      k;
}
// * * * * * * * * * * * * * * * * * * * * * * * * * * * * * * * * * * * * * //

dimensions      [0 2 -2 0 0 0 0];

internalField   nonuniform List<scalar> 
9072
(
0.00255921
0.00452156
0.00678541
0.00890233
0.0106843
0.0122246
0.0136968
0.0150222
0.0162466
0.0173955
0.0184887
0.0195404
0.0205602
0.0215538
0.0225237
0.02347
0.0243907
0.0252827
0.0261415
0.0269619
0.0277383
0.0284643
0.0291336
0.0297394
0.0302748
0.0307325
0.0311051
0.0313851
0.0315637
0.0316305
0.0315647
0.031419
0.0311595
0.0307569
0.0301893
0.0294361
0.0284785
0.0273077
0.02594
0.0244245
0.0227845
0.0210404
0.0192099
0.0171471
0.0149792
0.0121021
0.004198
0.0092475
0.0140741
0.0183584
0.022187
0.0255013
0.0283738
0.0309494
0.0333055
0.0354997
0.037575
0.0395624
0.0414823
0.0433465
0.0451608
0.0469254
0.0486372
0.0502902
0.0518765
0.0533869
0.0548115
0.0561402
0.0573624
0.0584682
0.0594479
0.0602926
0.0609945
0.061547
0.0619451
0.062185
0.0622579
0.0621336
0.0618392
0.0613756
0.0607472
0.0599624
0.0590381
0.0580122
0.0569487
0.0559011
0.0546231
0.052343
0.0473547
0.041177
0.0316598
0.0215997
0.00508247
0.0118389
0.0175991
0.0228287
0.0275216
0.0315857
0.0351737
0.0383983
0.041346
0.044086
0.0466712
0.04914
0.0515183
0.0538217
0.0560581
0.0582289
0.0603311
0.0623583
0.0643021
0.0661521
0.0678973
0.0695264
0.0710281
0.0723917
0.0736071
0.074666
0.0755618
0.0762902
0.07685
0.0772429
0.0774713
0.0775311
0.0774426
0.0772204
0.0768802
0.0764354
0.0758978
0.0752844
0.0746271
0.0739471
0.0729547
0.0708065
0.0658969
0.058143
0.0450689
0.0277242
0.00560001
0.0136791
0.0200753
0.0258772
0.0310379
0.0356044
0.0396731
0.0433421
0.0466987
0.0498162
0.0527523
0.0555495
0.058237
0.0608331
0.0633474
0.0657826
0.0681365
0.070403
0.0725737
0.0746382
0.0765855
0.078404
0.0800826
0.0816106
0.082979
0.0841803
0.08521
0.0860667
0.0867533
0.0872775
0.0876508
0.0878865
0.0880128
0.0880562
0.0880431
0.0879924
0.0879084
0.087777
0.0875655
0.0872007
0.0863423
0.084165
0.0797346
0.0723991
0.0588474
0.0337481
0.00592905
0.0152024
0.0221075
0.0282389
0.033747
0.0386785
0.0431066
0.0471177
0.0507953
0.054212
0.0574268
0.0604837
0.0634138
0.0662372
0.0689648
0.0716004
0.0741428
0.0765865
0.0789236
0.0811442
0.0832375
0.0851925
0.0869985
0.0886459
0.0901265
0.0914347
0.092568
0.0935283
0.0943225
0.094964
0.095472
0.0958714
0.0961996
0.0964937
0.0967885
0.0971068
0.0974466
0.0977678
0.0979801
0.0979203
0.0972059
0.0950934
0.0911363
0.0845341
0.0721813
0.0402791
0.00634032
0.0165552
0.0238466
0.0302397
0.0360016
0.0412017
0.0459055
0.0501896
0.0541307
0.0577978
0.0612479
0.0645248
0.0676599
0.070674
0.0735789
0.0763794
0.0790751
0.0816614
0.0841309
0.0864746
0.0886824
0.0907439
0.0926495
0.0943905
0.0959604
0.0973552
0.0985751
0.0996249
0.100516
0.101266
0.101901
0.102455
0.102973
0.103499
0.104076
0.104728
0.105448
0.106176
0.106779
0.10703
0.106524
0.104616
0.101048
0.0953427
0.083912
0.0467879
0.00684631
0.0178115
0.0254361
0.0320254
0.0379663
0.0433612
0.0482761
0.0527795
0.0569401
0.0608209
0.064475
0.0679441
0.0712588
0.0744396
0.0774986
0.0804415
0.0832683
0.0859753
0.0885561
0.0910023
0.0933048
0.0954542
0.097442
0.099261
0.100906
0.102376
0.103672
0.104803
0.105784
0.106638
0.107395
0.108096
0.108793
0.109536
0.11037
0.111322
0.112381
0.113473
0.11444
0.115016
0.11479
0.113214
0.110073
0.105232
0.0944252
0.0528015
0.00736545
0.0190318
0.0269318
0.0336624
0.0397247
0.0452578
0.0503329
0.0550121
0.059356
0.0634205
0.0672532
0.0708927
0.0743674
0.077697
0.0808936
0.0839627
0.0869053
0.0897182
0.0923958
0.0949308
0.0973149
0.0995401
0.101599
0.103486
0.105198
0.106735
0.108102
0.10931
0.110377
0.111331
0.112207
0.11305
0.113916
0.11486
0.115931
0.117154
0.118517
0.119939
0.121249
0.122165
0.122286
0.121145
0.118546
0.114336
0.103856
0.0585319
0.00786445
0.0202028
0.0283416
0.0351752
0.0413181
0.0469478
0.0521438
0.0569641
0.0614613
0.0656838
0.0696736
0.0734649
0.0770834
0.0805474
0.0838682
0.0870514
0.0900982
0.0930061
0.0957702
0.0983841
0.100841
0.103133
0.105256
0.107204
0.108977
0.110577
0.112012
0.113294
0.114447
0.115499
0.116491
0.117471
0.118499
0.119632
0.12092
0.122391
0.124029
0.125753
0.127392
0.128664
0.129187
0.128557
0.126578
0.122877
0.11248
0.0638434
0.00832759
0.0213033
0.0296519
0.0365656
0.0427637
0.0484622
0.0537507
0.0586849
0.0633109
0.0676699
0.071798
0.0757247
0.0794729
0.0830588
0.0864927
0.0897798
0.0929215
0.0959158
0.0987585
0.101444
0.103967
0.106321
0.108502
0.110508
0.112339
0.114
0.1155
0.116856
0.118093
0.119243
0.12035
0.121463
0.122646
0.123957
0.125448
0.127145
0.129035
0.13104
0.132997
0.134636
0.135606
0.135546
0.134243
0.131082
0.120709
0.0695041
0.00874984
0.02231
0.0308443
0.0378262
0.0440666
0.0498175
0.0551795
0.0602078
0.0649432
0.0694208
0.0736708
0.0777186
0.0815838
0.0852803
0.0888173
0.0921995
0.0954282
0.0985017
0.101417
0.104168
0.106752
0.109164
0.1114
0.113461
0.115348
0.117068
0.118634
0.120064
0.121385
0.122633
0.123853
0.125097
0.12643
0.127911
0.12959
0.131497
0.133621
0.13589
0.138155
0.140171
0.141619
0.142175
0.1416
0.139043
0.128723
0.0748472
0.00913722
0.0232081
0.0319036
0.0389474
0.0452261
0.0510222
0.0564471
0.0615561
0.0663862
0.0709675
0.0753256
0.0794816
0.083452
0.0872489
0.0908799
0.0943492
0.0976577
0.100804
0.103786
0.106599
0.10924
0.111706
0.113995
0.116108
0.118051
0.119831
0.121462
0.122967
0.124373
0.125719
0.127051
0.128425
0.129903
0.131546
0.133405
0.135509
0.13785
0.140369
0.142934
0.14533
0.147278
0.148489
0.148696
0.146845
0.136819
0.080524
0.00950841
0.0239892
0.0328192
0.0399215
0.0462403
0.0520816
0.0575651
0.0627467
0.067661
0.0723342
0.0767882
0.081041
0.0851062
0.0889939
0.0927104
0.0962591
0.0996409
0.102855
0.105898
0.108769
0.111464
0.113981
0.116321
0.118486
0.120483
0.122323
0.124021
0.125601
0.127093
0.128538
0.129983
0.131484
0.133105
0.134906
0.136936
0.139226
0.141774
0.14453
0.147386
0.150161
0.15262
0.154513
0.155567
0.154595
0.145405
0.0868448
0.00986636
0.0246464
0.0335831
0.0407425
0.0471076
0.0529996
0.0585427
0.0637933
0.0687843
0.0735401
0.0780799
0.0824191
0.0865693
0.0905388
0.0943327
0.0979538
0.101403
0.104679
0.10778
0.110704
0.113449
0.116015
0.118405
0.120621
0.122673
0.124573
0.126338
0.127995
0.129575
0.131119
0.132677
0.134305
0.136067
0.138021
0.140217
0.142686
0.145431
0.148414
0.15155
0.154697
0.157666
0.160256
0.162223
0.162392
0.154956
0.0941654
0.0101928
0.0251707
0.0341877
0.0414056
0.0478278
0.0537807
0.0593885
0.0647075
0.0697705
0.0746012
0.0792179
0.0836343
0.0878605
0.0919033
0.095767
0.0994536
0.102964
0.106296
0.10945
0.112424
0.115218
0.117831
0.120269
0.122535
0.124642
0.126602
0.128436
0.13017
0.131839
0.133484
0.135156
0.13691
0.138812
0.140918
0.143276
0.145919
0.148852
0.152053
0.155459
0.158964
0.162429
0.165711
0.168631
0.170257
0.165692
0.102951
0.0104925
0.025549
0.0346228
0.0419067
0.0484026
0.054431
0.0601117
0.0655005
0.0706321
0.0755314
0.080217
0.0847021
0.0889959
0.093104
0.0970301
0.100776
0.104341
0.107726
0.110928
0.113949
0.116788
0.119447
0.12193
0.124247
0.126407
0.128429
0.130332
0.132145
0.133904
0.135651
0.137437
0.139318
0.141359
0.143616
0.146135
0.148947
0.152064
0.155474
0.159138
0.162983
0.166916
0.17085
0.174704
0.178004
0.177383
0.115336
0.00468088
0.0106279
0.01658
0.0205435
0.0236637
0.026473
0.0292013
0.031934
0.0346421
0.0372081
0.039604
0.041765
0.0431749
0.0429653
0.0430392
0.0428816
0.0432188
0.0432743
0.0432111
0.0431091
0.0432287
0.0420936
0.0396612
0.036845
0.0338035
0.0306547
0.0275144
0.0245712
0.0219976
0.0197661
0.0178336
0.0161156
0.0144846
0.0127774
0.0108079
0.00841575
0.00555334
0.00465534
0.007815
0.0168883
0.0235707
0.0278188
0.0311354
0.0342127
0.0373293
0.0405458
0.0437733
0.0469242
0.0499417
0.0527606
0.055251
0.0571605
0.058653
0.0597075
0.0604038
0.0606401
0.0604176
0.0596659
0.0582349
0.0559394
0.0530118
0.0495981
0.0458453
0.041925
0.0380293
0.0343492
0.0311475
0.0284914
0.0263176
0.0244642
0.0226875
0.0206994
0.0181889
0.014926
0.0104959
0.0066077
0.00948296
0.0218675
0.0289428
0.0334906
0.0370478
0.0403906
0.0438353
0.047442
0.0511124
0.0547487
0.0582675
0.0615935
0.0646764
0.0674112
0.0696305
0.0712486
0.0722604
0.0726259
0.0723015
0.0712207
0.0693157
0.0666842
0.063412
0.0595646
0.0552965
0.0508109
0.0463455
0.0421343
0.0384358
0.035367
0.0328932
0.030843
0.028914
0.026721
0.0238357
0.0199182
0.0142846
0.00780881
0.0122453
0.0260822
0.0334627
0.0382895
0.0420955
0.0456967
0.0494433
0.0534073
0.0574746
0.0615297
0.0654645
0.0691891
0.0726405
0.0757505
0.0783235
0.0802318
0.0814351
0.0819086
0.0816098
0.0804898
0.0785265
0.0757849
0.0723058
0.0681834
0.0635819
0.0587233
0.0538721
0.0492992
0.0452904
0.0419835
0.0393364
0.0371442
0.0350356
0.0325334
0.0291247
0.0243924
0.0176966
0.00837372
0.0147006
0.0298866
0.0375238
0.0426175
0.0467025
0.0506021
0.0546844
0.0590288
0.0634977
0.067954
0.0722643
0.0763242
0.0800648
0.0834151
0.0862036
0.0882923
0.0896318
0.0902051
0.0899779
0.0889072
0.0869715
0.084194
0.0806202
0.0763524
0.071558
0.0664678
0.0613618
0.056538
0.0523092
0.0488331
0.0460542
0.0437282
0.0414082
0.0385153
0.0344574
0.0287797
0.0209552
0.00942234
0.0169451
0.0334394
0.0413316
0.0467132
0.0511358
0.055408
0.059898
0.0646835
0.0695939
0.0744668
0.0791384
0.083489
0.0874554
0.0909731
0.0938928
0.0960864
0.0975088
0.0981558
0.0980016
0.0970035
0.0951298
0.0923841
0.0888119
0.0845123
0.0796489
0.0744521
0.0692081
0.0642328
0.0598605
0.056265
0.0533744
0.0509053
0.0483349
0.0449752
0.0401457
0.0333779
0.0242648
0.0105691
0.0190764
0.0368323
0.0450126
0.0507442
0.0556011
0.0603602
0.0653717
0.0706968
0.0761208
0.0814542
0.0864922
0.0910955
0.0952217
0.0988339
0.101807
0.104029
0.105468
0.106139
0.106032
0.105103
0.103313
0.100655
0.0971666
0.0929375
0.0881197
0.0829352
0.0776683
0.0726431
0.0682079
0.0645482
0.061571
0.0589526
0.0560965
0.0522031
0.0464829
0.0384422
0.0277774
0.0118142
0.021166
0.0401424
0.0486675
0.0548623
0.0603057
0.0657254
0.0714316
0.0774354
0.0834713
0.0893288
0.0947475
0.0995594
0.103761
0.107372
0.110305
0.112462
0.113827
0.114447
0.114333
0.11345
0.11175
0.109218
0.105882
0.101815
0.0971526
0.0920989
0.0869285
0.0819647
0.0775609
0.0739094
0.0708889
0.068131
0.0649666
0.0604846
0.053763
0.0442328
0.0316482
0.0131766
0.02328
0.0434634
0.0524132
0.0592504
0.0655124
0.0718565
0.0785174
0.0853769
0.0921274
0.0985689
0.104371
0.10932
0.113473
0.116952
0.119722
0.121694
0.122864
0.12332
0.123116
0.122229
0.120604
0.118219
0.115088
0.111268
0.106866
0.102066
0.0971215
0.0923473
0.0880917
0.084548
0.081557
0.0786968
0.0752218
0.0701099
0.0622855
0.0510332
0.0360665
0.0146871
0.0254941
0.0469431
0.0564416
0.064183
0.0716
0.079259
0.0872559
0.0951628
0.102681
0.109708
0.115846
0.120803
0.124725
0.127886
0.130339
0.131979
0.132802
0.132944
0.132531
0.131562
0.129974
0.127732
0.124846
0.121346
0.117313
0.112897
0.108326
0.103894
0.0999351
0.0966368
0.0937902
0.0909058
0.0871498
0.0813838
0.0723625
0.0591532
0.0412707
0.0163952
0.0279089
0.0508425
0.0611279
0.0701226
0.0791394
0.0886524
0.0985072
0.107593
0.115779
0.123247
0.129565
0.13432
0.137751
0.140354
0.142297
0.143452
0.143756
0.143402
0.142626
0.141472
0.139861
0.137744
0.135126
0.132019
0.128468
0.124582
0.120554
0.116649
0.113179
0.110315
0.107785
0.105012
0.101053
0.0946364
0.0843295
0.0689282
0.0475543
0.0183762
0.0306775
0.0556279
0.0672478
0.0778827
0.0889857
0.100984
0.113241
0.123456
0.131928
0.139435
0.145622
0.149882
0.152505
0.154261
0.155496
0.156021
0.155648
0.154609
0.153299
0.151844
0.150142
0.148121
0.14579
0.143148
0.140203
0.137017
0.133736
0.130587
0.127849
0.125673
0.123708
0.121263
0.11725
0.110231
0.0985608
0.0807241
0.0552654
0.020737
0.0340444
0.06211
0.0763865
0.0888713
0.102363
0.117303
0.132124
0.143044
0.151054
0.157912
0.163507
0.166953
0.168483
0.169127
0.169459
0.16925
0.168113
0.166245
0.164241
0.162378
0.16053
0.158584
0.156564
0.154472
0.152277
0.14999
0.1477
0.145588
0.143892
0.142739
0.141684
0.139887
0.136069
0.128572
0.115487
0.0949547
0.0648067
0.0236232
0.0384624
0.0719019
0.0914237
0.105216
0.120765
0.138257
0.154652
0.165227
0.171828
0.177206
0.181735
0.184216
0.184559
0.183941
0.183234
0.182268
0.18041
0.177691
0.1749
0.172564
0.170556
0.168694
0.167027
0.165587
0.164315
0.163165
0.162161
0.161426
0.161156
0.161461
0.16178
0.161087
0.157848
0.150107
0.135614
0.112114
0.0766486
0.027226
0.0450215
0.0873323
0.115766
0.128703
0.14481
0.162527
0.177452
0.186099
0.190916
0.194471
0.197727
0.199373
0.198777
0.197038
0.195331
0.193722
0.19137
0.187994
0.184475
0.181686
0.179576
0.177861
0.176619
0.175958
0.175812
0.17608
0.176715
0.177762
0.17938
0.181696
0.184
0.185032
0.182932
0.175338
0.159546
0.132826
0.0913813
0.031798
0.0619065
0.114428
0.14742
0.155543
0.168952
0.181929
0.191244
0.198616
0.202984
0.205329
0.207781
0.209214
0.208337
0.206014
0.20368
0.201782
0.19941
0.195864
0.191937
0.188854
0.186791
0.185365
0.184667
0.184937
0.186148
0.188158
0.190844
0.194149
0.198178
0.203203
0.208276
0.211859
0.211676
0.204829
0.188008
0.157893
0.109824
0.0377381
0.0108013
0.0258164
0.034959
0.0423695
0.0490135
0.0551859
0.0609949
0.0664972
0.0717329
0.076732
0.0815155
0.0860971
0.0904853
0.094685
0.098699
0.102528
0.106173
0.109632
0.112907
0.115997
0.118904
0.121632
0.124188
0.126582
0.12883
0.13095
0.132966
0.134909
0.136815
0.13873
0.140704
0.142793
0.145056
0.14755
0.150318
0.153392
0.15679
0.160516
0.164562
0.168903
0.173502
0.178346
0.183463
0.188875
0.1923
0.15528
0.0110427
0.0255189
0.0347385
0.0424313
0.0493863
0.0558221
0.0618312
0.0674843
0.0728414
0.0779468
0.0828294
0.0875065
0.0919878
0.0962784
0.100381
0.104295
0.108022
0.111562
0.114914
0.118082
0.121068
0.123879
0.126524
0.129018
0.131379
0.133629
0.135796
0.137912
0.140018
0.14216
0.144388
0.146755
0.149311
0.15211
0.155192
0.158583
0.162305
0.166376
0.170813
0.175616
0.180769
0.186238
0.191937
0.197539
0.201261
0.190504
0.0109616
0.0242692
0.0337972
0.0420445
0.0494522
0.056189
0.0623856
0.0681604
0.0736067
0.0787863
0.0837364
0.0884782
0.093023
0.0973764
0.101541
0.105517
0.109306
0.112907
0.116322
0.119553
0.122606
0.125488
0.128214
0.130799
0.133265
0.135639
0.13795
0.140234
0.142534
0.144897
0.147377
0.150023
0.15288
0.155994
0.159399
0.163116
0.167162
0.171567
0.176361
0.181553
0.187118
0.192984
0.198965
0.204626
0.208946
0.208017
0.010581
0.0220614
0.0325225
0.0416262
0.049511
0.0564599
0.062745
0.0685678
0.0740521
0.0792673
0.0842525
0.0890303
0.0936133
0.0980075
0.102215
0.106236
0.11007
0.113719
0.117183
0.120466
0.123576
0.126521
0.129317
0.131983
0.134546
0.137034
0.13948
0.141921
0.144404
0.146983
0.149713
0.152642
0.155807
0.159246
0.162985
0.16704
0.171422
0.176166
0.181309
0.18685
0.192749
0.19892
0.205141
0.210998
0.215799
0.218017
0.0102445
0.0194557
0.0318191
0.0418095
0.0499577
0.0569004
0.063117
0.0688909
0.0743529
0.0795595
0.0845419
0.0893219
0.0939135
0.0983232
0.102553
0.106603
0.110466
0.114146
0.117644
0.120964
0.124113
0.127103
0.12995
0.132679
0.135318
0.137898
0.140452
0.14302
0.145658
0.148434
0.151413
0.154634
0.158121
0.161891
0.165972
0.170379
0.175121
0.180236
0.185745
0.191603
0.197768
0.204161
0.210547
0.216558
0.221699
0.225188
0.0144436
0.0213935
0.0328736
0.0424898
0.0503511
0.0571445
0.0632887
0.0690233
0.07446
0.0796483
0.0846165
0.089385
0.0939667
0.0983671
0.102607
0.106745
0.110662
0.114358
0.117872
0.121209
0.124378
0.127391
0.130269
0.133042
0.135745
0.138413
0.14107
0.14375
0.146516
0.149455
0.152661
0.156138
0.159899
0.163948
0.168335
0.173085
0.178226
0.183794
0.189715
0.195849
0.202201
0.208714
0.215127
0.221121
0.226356
0.230323
0.0266148
0.0418798
0.0540123
0.0620044
0.0677247
0.0730753
0.0781602
0.0830111
0.0876464
0.0920571
0.096229
0.100143
0.103755
0.106991
0.109717
0.111684
0.113932
0.116667
0.119579
0.12251
0.12539
0.128192
0.130912
0.133562
0.136165
0.138743
0.141322
0.143937
0.14665
0.14966
0.153323
0.157293
0.161582
0.165875
0.170324
0.175152
0.180644
0.186796
0.193159
0.199467
0.205958
0.212526
0.218819
0.224621
0.229754
0.233844
0.0302871
0.0517492
0.0645217
0.0721183
0.0786173
0.0846009
0.0900989
0.0951927
0.0999727
0.1045
0.108814
0.112949
0.116928
0.120779
0.124536
0.128257
0.132023
0.135811
0.139586
0.143331
0.147045
0.150735
0.154408
0.158065
0.161693
0.165241
0.168574
0.171354
0.172809
0.171139
0.159252
0.158712
0.162046
0.166228
0.171105
0.176312
0.183134
0.190434
0.196361
0.202307
0.208933
0.215506
0.221503
0.227024
0.23199
0.236046
0.0291025
0.0535626
0.0686158
0.0786416
0.0868344
0.0940075
0.1004
0.106167
0.111449
0.116358
0.12098
0.125379
0.129609
0.133713
0.137726
0.141681
0.145613
0.149549
0.153507
0.157504
0.16156
0.165701
0.16995
0.174329
0.178848
0.18348
0.18812
0.192487
0.196008
0.19788
0.198131
0.200179
0.202399
0.200226
0.180907
0.178681
0.184565
0.192176
0.197874
0.204832
0.212436
0.218224
0.223329
0.228507
0.233317
0.237179
0.0276813
0.0544078
0.0706347
0.0823803
0.0919961
0.100289
0.107599
0.114126
0.120028
0.125433
0.130446
0.135149
0.139613
0.143896
0.148046
0.152107
0.156124
0.16014
0.164195
0.168327
0.172577
0.176986
0.181599
0.186456
0.19159
0.197003
0.202634
0.208313
0.213743
0.218666
0.223406
0.228785
0.233993
0.236104
0.233474
0.232249
0.230546
0.21214
0.200836
0.206361
0.214548
0.219719
0.224746
0.230114
0.234755
0.23791
0.0269698
0.0549994
0.0716823
0.0844328
0.0950285
0.104179
0.112245
0.119442
0.12593
0.131836
0.137268
0.142315
0.147056
0.151559
0.155885
0.160092
0.164233
0.168365
0.17254
0.17681
0.181229
0.185853
0.190739
0.19594
0.201499
0.207435
0.21372
0.220255
0.226882
0.23349
0.240222
0.247386
0.254716
0.260915
0.265256
0.26902
0.271338
0.268082
0.264013
0.260737
0.239499
0.222697
0.225786
0.230915
0.235874
0.238505
0.0268754
0.0552198
0.072194
0.0855058
0.0967076
0.106442
0.115062
0.122785
0.129766
0.136127
0.141967
0.147377
0.152434
0.157211
0.161775
0.166191
0.17052
0.174826
0.179168
0.18361
0.188212
0.19304
0.198156
0.203621
0.209483
0.21577
0.222473
0.22954
0.236884
0.244447
0.252288
0.26053
0.26902
0.277119
0.28436
0.291121
0.297376
0.301706
0.304357
0.30567
0.301766
0.297125
0.295796
0.291078
0.256485
0.243391
0.0270207
0.0552945
0.0724196
0.0860355
0.0975792
0.107668
0.116652
0.124746
0.132103
0.138834
0.145034
0.150786
0.156165
0.161241
0.166082
0.170755
0.175325
0.179857
0.184416
0.189071
0.193886
0.198931
0.204272
0.209971
0.216079
0.22263
0.229631
0.237058
0.244868
0.253026
0.261548
0.270466
0.279662
0.288784
0.297512
0.305917
0.314062
0.321333
0.327467
0.332793
0.336353
0.338284
0.340417
0.340575
0.334832
0.331693
0.0273757
0.0553573
0.0725393
0.0862957
0.0979948
0.108257
0.117439
0.125759
0.133365
0.140367
0.146851
0.152895
0.158566
0.163933
0.16906
0.17401
0.17885
0.183645
0.18846
0.193365
0.198428
0.203717
0.209299
0.215238
0.221585
0.228379
0.235639
0.243361
0.251525
0.260112
0.269115
0.278518
0.288224
0.298011
0.307656
0.317094
0.32628
0.334921
0.342788
0.349954
0.356018
0.360701
0.365008
0.369003
0.370988
0.371753
0.0279333
0.0554998
0.0726714
0.0864448
0.0981572
0.10845
0.117692
0.126109
0.133849
0.141019
0.147702
0.153969
0.159884
0.165508
0.170902
0.176127
0.181244
0.186317
0.191411
0.196594
0.201932
0.207494
0.213344
0.219546
0.226152
0.233205
0.240731
0.248739
0.257224
0.266176
0.275577
0.285392
0.295535
0.305848
0.316157
0.326347
0.336317
0.345864
0.35478
0.36298
0.370246
0.37639
0.381843
0.386839
0.390684
0.393203
0.0286497
0.0557527
0.0728613
0.0865487
0.0981611
0.108372
0.117563
0.12597
0.133743
0.140989
0.147788
0.154207
0.160305
0.16614
0.171766
0.177241
0.182623
0.187973
0.193352
0.198825
0.204456
0.210312
0.216455
0.222947
0.229839
0.237178
0.244993
0.253303
0.262112
0.271414
0.281188
0.291394
0.301954
0.312744
0.323616
0.334439
0.345081
0.355364
0.365095
0.374126
0.382277
0.389409
0.39566
0.40116
0.405633
0.408914
0.0294543
0.0560935
0.073093
0.0866083
0.0980312
0.108071
0.117128
0.125441
0.133166
0.140408
0.147249
0.153751
0.159972
0.165963
0.171778
0.177468
0.183089
0.188697
0.194351
0.200111
0.206039
0.212198
0.218648
0.225447
0.232648
0.240295
0.248423
0.257053
0.266198
0.275851
0.285996
0.29659
0.307563
0.31881
0.330202
0.341603
0.352867
0.363824
0.374286
0.384079
0.393029
0.400998
0.407981
0.414006
0.418947
0.422707
0.0302737
0.0564707
0.0733166
0.086591
0.0977576
0.107564
0.116422
0.124578
0.132191
0.139367
0.146186
0.152711
0.158995
0.16509
0.171045
0.176908
0.182731
0.188568
0.194473
0.200503
0.206717
0.213173
0.219928
0.227039
0.234556
0.242522
0.250973
0.259934
0.269418
0.279424
0.289935
0.300911
0.31229
0.323978
0.335858
0.347798
0.359648
0.371239
0.382387
0.392906
0.402619
0.411375
0.419094
0.425729
0.431196
0.435427
0.0310482
0.0568273
0.0734759
0.0864578
0.0973222
0.10685
0.115466
0.123421
0.130874
0.137934
0.14468
0.151174
0.157471
0.163618
0.169663
0.175653
0.181636
0.187663
0.193784
0.200055
0.206529
0.213262
0.220307
0.227717
0.235541
0.243819
0.252588
0.261874
0.271689
0.282035
0.292897
0.304239
0.316003
0.328104
0.340436
0.35287
0.365259
0.377437
0.389219
0.40042
0.410854
0.420358
0.428806
0.436107
0.442172
0.446934
0.0317373
0.0571154
0.0735249
0.0861788
0.0967126
0.105936
0.114281
0.122003
0.129262
0.136167
0.142798
0.149218
0.15548
0.161633
0.167721
0.173791
0.179888
0.186061
0.192358
0.19883
0.205528
0.212504
0.219809
0.227491
0.235596
0.244164
0.253228
0.262814
0.272936
0.283595
0.294778
0.306453
0.318565
0.331037
0.34377
0.356642
0.369508
0.382206
0.394557
0.406372
0.417464
0.427656
0.4368
0.444771
0.451464
0.4568
0.0323181
0.0573014
0.073435
0.0857392
0.095928
0.104833
0.112891
0.12036
0.1274
0.134122
0.140606
0.146915
0.153104
0.159218
0.165305
0.171408
0.177573
0.183845
0.190272
0.1969
0.203778
0.210955
0.218477
0.226391
0.234738
0.243557
0.252878
0.262726
0.273114
0.284045
0.295505
0.307464
0.319872
0.332659
0.345729
0.358967
0.372234
0.385372
0.398205
0.410548
0.422211
0.43301
0.442782
0.45138
0.458684
0.464598
0.0327812
0.0573662
0.0731943
0.0851386
0.0949788
0.103561
0.111326
0.11853
0.125336
0.131854
0.138165
0.144334
0.150415
0.156454
0.162499
0.168593
0.17478
0.181104
0.187611
0.194346
0.201355
0.208683
0.216374
0.22447
0.233011
0.242031
0.25156
0.261619
0.272221
0.283369
0.295049
0.307233
0.319874
0.332906
0.346239
0.359763
0.373344
0.386829
0.400047
0.412815
0.424945
0.43625
0.446555
0.455704
0.463561
0.470016
0.0331266
0.0573029
0.0728038
0.0843869
0.0938828
0.102145
0.109616
0.116552
0.123114
0.129415
0.135535
0.14154
0.147484
0.153417
0.159383
0.165428
0.171593
0.177925
0.184464
0.191257
0.198345
0.205771
0.213577
0.221801
0.23048
0.239645
0.249324
0.259536
0.270293
0.281595
0.293431
0.305773
0.318577
0.331779
0.345294
0.359017
0.372819
0.386552
0.40005
0.413134
0.425618
0.437314
0.448044
0.457643
0.465967
0.472893
0.0333597
0.0571129
0.0722729
0.0835003
0.0926614
0.100613
0.107795
0.114463
0.120779
0.126853
0.13277
0.138593
0.144379
0.150177
0.156034
0.161993
0.168099
0.174395
0.180922
0.187723
0.194839
0.202311
0.210176
0.218472
0.227231
0.236483
0.246251
0.256554
0.267401
0.278793
0.290717
0.303147
0.31604
0.329335
0.342951
0.356786
0.370716
0.384599
0.398273
0.411562
0.424284
0.436253
0.447289
0.457225
0.465912
0.473219
0.0334891
0.0568026
0.0716148
0.082497
0.091337
0.0989893
0.105892
0.112298
0.118368
0.124213
0.129918
0.135547
0.141157
0.1468
0.15252
0.158365
0.164377
0.170598
0.177071
0.183836
0.190932
0.198399
0.206271
0.214583
0.223365
0.232644
0.242441
0.252773
0.263648
0.275065
0.28701
0.299459
0.31237
0.325684
0.339323
0.353188
0.367159
0.381098
0.394848
0.408238
0.421087
0.433214
0.444439
0.454595
0.463533
0.471118
0.0335245
0.0563814
0.0708447
0.0813953
0.0899302
0.0972985
0.103933
0.110086
0.115915
0.121532
0.127021
0.132449
0.137872
0.143342
0.148906
0.154611
0.160499
0.166613
0.172994
0.179682
0.186716
0.194131
0.201961
0.210237
0.218989
0.22824
0.23801
0.248313
0.259156
0.270536
0.282442
0.294847
0.307711
0.320976
0.334567
0.348388
0.362323
0.376235
0.389972
0.403367
0.416242
0.42842
0.439723
0.449988
0.459066
0.466822
0.0334758
0.0558598
0.0699772
0.0802121
0.0884597
0.0955603
0.101942
0.107852
0.113448
0.118842
0.124116
0.129339
0.134567
0.139853
0.145245
0.15079
0.156531
0.16251
0.168769
0.175346
0.182278
0.1896
0.197344
0.20554
0.214213
0.223387
0.233079
0.243301
0.254059
0.26535
0.277161
0.289467
0.302228
0.315388
0.328872
0.342587
0.356419
0.370235
0.383885
0.397204
0.41002
0.422156
0.433441
0.443713
0.452829
0.460656
0.033353
0.0552487
0.0690262
0.0789624
0.0869411
0.0937916
0.0999355
0.105616
0.11099
0.116168
0.121231
0.126249
0.131279
0.136375
0.141584
0.146955
0.15253
0.158353
0.164464
0.170901
0.177701
0.184895
0.192517
0.200592
0.209147
0.2182
0.22777
0.237868
0.248497
0.259654
0.271327
0.283489
0.296102
0.309111
0.322443
0.336004
0.349684
0.36335
0.376856
0.390038
0.402726
0.414747
0.425934
0.436131
0.445198
0.453009
0.0331653
0.0545588
0.0680048
0.0776596
0.085388
0.0920064
0.097929
0.103395
0.108559
0.113529
0.118389
0.123206
0.128039
0.132941
0.137962
0.143149
0.148546
0.154197
0.16014
0.166415
0.173056
0.180097
0.187565
0.195489
0.203891
0.212792
0.222205
0.232143
0.242608
0.253597
0.265097
0.277084
0.289517
0.302344
0.315492
0.328868
0.342363
0.355846
0.369169
0.382172
0.394686
0.406542
0.417575
0.427635
0.436589
0.444319
0.0329218
0.0538009
0.0669252
0.0763157
0.0838122
0.0902163
0.0959342
0.101201
0.106168
0.110943
0.115607
0.12023
0.124869
0.129579
0.134409
0.139407
0.144619
0.150086
0.155849
0.161945
0.16841
0.175275
0.182569
0.190317
0.198542
0.207263
0.216495
0.226247
0.236524
0.247322
0.258628
0.270417
0.282653
0.29528
0.308228
0.321405
0.3347
0.347984
0.361109
0.373914
0.386233
0.397896
0.408745
0.418634
0.42744
0.435054
0.032631
0.052986
0.0657989
0.074942
0.082224
0.088431
0.0939608
0.0990434
0.103828
0.108419
0.112899
0.117336
0.121788
0.126309
0.13095
0.135759
0.140781
0.146059
0.151633
0.157541
0.163818
0.170493
0.177597
0.185153
0.193184
0.201709
0.210742
0.220294
0.230368
0.240961
0.252061
0.263646
0.275677
0.288103
0.300851
0.31383
0.32693
0.340019
0.35295
0.365562
0.377687
0.389159
0.399822
0.409538
0.418193
0.425689
0.0323013
0.0521248
0.0646374
0.0735488
0.0806329
0.0866594
0.092017
0.0969307
0.101546
0.105968
0.110275
0.114536
0.118808
0.123148
0.127604
0.132227
0.13706
0.142147
0.14753
0.153244
0.159325
0.165804
0.172708
0.180063
0.187892
0.196211
0.205037
0.214381
0.224246
0.234632
0.245528
0.256911
0.268745
0.280979
0.293541
0.306341
0.319266
0.332184
0.344946
0.357391
0.369349
0.380657
0.391163
0.400736
0.409272
0.41669
0.0319405
0.0512282
0.0634517
0.0721463
0.0790481
0.0849094
0.09011
0.0948696
0.0993305
0.103595
0.107742
0.111837
0.115941
0.120107
0.124386
0.128827
0.133475
0.138374
0.143566
0.149086
0.15497
0.16125
0.167952
0.175104
0.182726
0.190838
0.199457
0.208593
0.218254
0.228439
0.23914
0.250335
0.26199
0.274055
0.286459
0.29911
0.311897
0.324685
0.337322
0.349646
0.361487
0.372684
0.383088
0.39258
0.401067
0.408485
0.0315562
0.050307
0.0622527
0.0707445
0.0774781
0.0831886
0.0882464
0.0928657
0.0971856
0.101306
0.105305
0.109248
0.113193
0.117195
0.121306
0.125572
0.130042
0.134759
0.139763
0.145093
0.150783
0.156866
0.163369
0.170319
0.177739
0.185649
0.194065
0.203003
0.21247
0.222468
0.232991
0.244021
0.255524
0.267453
0.279736
0.292284
0.304981
0.317693
0.330265
0.342532
0.354325
0.365485
0.375869
0.385369
0.39391
0.401445
0.0311557
0.049372
0.0610513
0.0693531
0.0759317
0.0815045
0.0864324
0.0909245
0.0951163
0.0991054
0.102968
0.10677
0.110569
0.114418
0.11837
0.122472
0.126772
0.131313
0.136138
0.141284
0.146787
0.152679
0.158989
0.165745
0.17297
0.180686
0.188913
0.197666
0.206955
0.216787
0.227157
0.23805
0.249437
0.261269
0.273479
0.285975
0.298642
0.311342
0.323919
0.336206
0.348034
0.359247
0.369712
0.379334
0.388057
0.39586
0.0307459
0.0484336
0.0598581
0.067982
0.0744174
0.0798642
0.0846743
0.0890511
0.0931268
0.0969966
0.100736
0.104408
0.108072
0.111779
0.115583
0.119531
0.12367
0.128046
0.132701
0.137672
0.142997
0.148708
0.154835
0.161407
0.168449
0.175985
0.184037
0.192623
0.201756
0.211446
0.221693
0.232483
0.243792
0.255574
0.267762
0.280264
0.292965
0.305725
0.318384
0.330775
0.34273
0.354096
0.364754
0.374624
0.383677
0.391921
0.0303332
0.047502
0.0586834
0.0666406
0.0729436
0.0782751
0.082978
0.0872503
0.0912209
0.0949827
0.0986095
0.102164
0.105703
0.10928
0.112947
0.116752
0.120742
0.124963
0.129458
0.134265
0.139423
0.144964
0.15092
0.157322
0.164195
0.171568
0.179463
0.187902
0.196904
0.20648
0.216634
0.227359
0.238632
0.25041
0.26263
0.275199
0.288
0.300891
0.313713
0.326293
0.338467
0.35009
0.361055
0.371306
0.380844
0.389712
0.0299238
0.0465872
0.0575374
0.0653383
0.0715186
0.0767444
0.0813497
0.0855272
0.0894025
0.0930665
0.0965911
0.100038
0.103464
0.106922
0.110463
0.114136
0.117988
0.122066
0.126412
0.131067
0.136069
0.141453
0.147252
0.153498
0.16022
0.167446
0.175204
0.18352
0.192414
0.201904
0.211999
0.222695
0.233974
0.245797
0.258101
0.270795
0.283761
0.296855
0.309913
0.322765
0.335247
0.347224
0.358607
0.369367
0.379541
0.389214
0.0295234
0.0456986
0.0564299
0.0640843
0.0701508
0.0752793
0.0797952
0.0838865
0.0876754
0.0912505
0.0946826
0.0980323
0.101355
0.104704
0.10813
0.111681
0.115407
0.119353
0.123562
0.128078
0.132937
0.138177
0.143833
0.149938
0.156525
0.163623
0.171265
0.179479
0.188292
0.197724
0.207791
0.218494
0.229819
0.241731
0.254169
0.267042
0.280233
0.293593
0.306957
0.320153
0.333023
0.34544
0.357338
0.36872
0.379666
0.390308
0.0291372
0.0448451
0.05537
0.0628874
0.0688481
0.0738867
0.0783206
0.082333
0.086043
0.0895373
0.0928852
0.0961463
0.0993755
0.102625
0.105946
0.109386
0.112996
0.116821
0.120905
0.125292
0.130022
0.135132
0.140659
0.146639
0.153106
0.160095
0.16764
0.175774
0.184529