/*--------------------------------*- C++ -*----------------------------------*\
  =========                 |
  \\      /  F ield         | OpenFOAM: The Open Source CFD Toolbox
   \\    /   O peration     | Website:  https://openfoam.org
    \\  /    A nd           | Version:  7
     \\/     M anipulation  |
\*---------------------------------------------------------------------------*/
FoamFile
{
    version     2.0;
    format      ascii;
    class       volScalarField;
    location    "0.45";
    object      nut;
}
// * * * * * * * * * * * * * * * * * * * * * * * * * * * * * * * * * * * * * //

dimensions      [0 2 -1 0 0 0 0];

internalField   nonuniform List<scalar> 
9072
(
2.31325e-05
2.26385e-05
2.77312e-05
3.17665e-05
3.4803e-05
3.72267e-05
3.9405e-05
4.12676e-05
4.29159e-05
4.44064e-05
4.57788e-05
4.70608e-05
4.82709e-05
4.9421e-05
5.05181e-05
5.15657e-05
5.25648e-05
5.35147e-05
5.44134e-05
5.52583e-05
5.6046e-05
5.67727e-05
5.74344e-05
5.80267e-05
5.85451e-05
5.89846e-05
5.934e-05
5.96054e-05
5.97739e-05
5.98362e-05
5.97733e-05
5.96356e-05
5.93884e-05
5.90029e-05
5.84553e-05
5.77208e-05
5.67734e-05
5.55931e-05
5.41818e-05
5.25735e-05
5.07735e-05
4.87921e-05
4.66242e-05
4.40523e-05
4.11724e-05
3.70039e-05
4.61633e-05
0.000144891
0.000221883
0.000275426
0.000318794
0.000353487
0.000380773
0.000403621
0.000423086
0.000439971
0.000454868
0.000468197
0.000480258
0.000491254
0.000501326
0.000510562
0.000519017
0.000526723
0.000533692
0.000539924
0.000545412
0.000550143
0.000554101
0.000557267
0.000559625
0.000561158
0.000561856
0.000561708
0.000560711
0.000558848
0.000555957
0.000549567
0.00054064
0.000529315
0.000515553
0.000499225
0.000480312
0.000459215
0.00043698
0.000415195
0.000393958
0.000370128
0.00034669
0.000334486
0.000247616
0.000104603
5.08002e-05
0.000253512
0.000398738
0.000511216
0.000605572
0.000684856
0.000752524
0.000811116
0.000862322
0.000907503
0.000947722
0.000983797
0.00101634
0.00104581
0.00107253
0.00109675
0.00111864
0.00113832
0.00115586
0.00117132
0.00118473
0.00119609
0.0012054
0.00121264
0.00121781
0.00122088
0.00122182
0.00122062
0.00121724
0.00121158
0.00120319
0.00118951
0.00117041
0.00114557
0.00111435
0.00107572
0.00102863
0.000972575
0.000908611
0.000840074
0.000771081
0.000706522
0.000652373
0.000607609
0.000420819
0.000118506
5.33292e-05
0.000329056
0.000530457
0.000694183
0.000834748
0.000957875
0.00106643
0.0011627
0.00124854
0.00132548
0.00139481
0.00145753
0.00151444
0.00156614
0.00161311
0.00165569
0.00169415
0.00172871
0.00175949
0.00178662
0.00181016
0.00183015
0.00184664
0.00185961
0.00186908
0.00187504
0.00187745
0.00187628
0.00187145
0.00186276
0.00184956
0.00182956
0.00180186
0.00176542
0.00171873
0.00165976
0.00158621
0.00149638
0.00139066
0.00127328
0.00115239
0.00104021
0.000951047
0.000860455
0.000600289
0.000130742
5.48734e-05
0.000379969
0.000627804
0.000834336
0.00101692
0.00118046
0.00132749
0.00146003
0.00157988
0.00168861
0.00178753
0.00187774
0.00196009
0.00203529
0.00210386
0.00216624
0.00222277
0.00227369
0.00231922
0.00235951
0.00239467
0.00242479
0.00244993
0.00247012
0.00248538
0.00249572
0.00250112
0.00250152
0.0024968
0.00248664
0.00247024
0.00244547
0.00241092
0.00236486
0.00230497
0.00222825
0.00213134
0.00201162
0.00186893
0.00170791
0.00153943
0.00138027
0.00124972
0.00109906
0.000768772
0.000142819
5.67327e-05
0.000412627
0.000698847
0.000943401
0.00116349
0.0013637
0.00154617
0.00171264
0.00186475
0.00200396
0.00213157
0.00224867
0.00235616
0.00245477
0.00254507
0.00262755
0.00270256
0.00277043
0.00283138
0.00288562
0.00293328
0.00297449
0.00300934
0.00303789
0.00306018
0.00307624
0.00308605
0.00308953
0.00308651
0.00307656
0.00305874
0.00303092
0.00299134
0.00293767
0.00286685
0.00277504
0.00265813
0.00251282
0.00233863
0.0021404
0.00193019
0.00172618
0.00154467
0.00132712
0.000905511
0.000153921
5.89481e-05
0.000434316
0.000752797
0.00103026
0.00128347
0.00151666
0.00173148
0.0019293
0.00211148
0.00227934
0.00243411
0.00257685
0.00270845
0.00282966
0.00294109
0.00304323
0.00313651
0.00322125
0.00329772
0.00336614
0.00342669
0.00347952
0.00352474
0.00356245
0.00359271
0.00361555
0.00363095
0.00363883
0.00363895
0.00363078
0.00361321
0.00358405
0.00354124
0.00348192
0.0034024
0.00329819
0.00316456
0.00299784
0.00279733
0.0025678
0.00232117
0.00207421
0.00183512
0.00154465
0.00102405
0.000163497
6.11412e-05
0.000451954
0.000796104
0.00110143
0.00138361
0.00164626
0.00189044
0.00211702
0.002327
0.00252152
0.00270166
0.00286845
0.00302278
0.00316539
0.00329693
0.00341792
0.0035288
0.00362992
0.00372158
0.00380404
0.00387749
0.00394211
0.00399804
0.00404539
0.00408425
0.00411467
0.00413661
0.00414997
0.00415445
0.00414942
0.0041336
0.00410469
0.00406035
0.00399727
0.00391123
0.00379718
0.00365001
0.00346573
0.00324346
0.00298757
0.00270873
0.00242025
0.00212133
0.00174881
0.00112811
0.000172142
6.31793e-05
0.000467932
0.000832622
0.00116136
0.00146873
0.00175762
0.00202837
0.00228123
0.00251681
0.00273595
0.00293963
0.00312879
0.0033043
0.00346693
0.00361735
0.00375611
0.00388367
0.00400043
0.0041067
0.00420277
0.00428886
0.00436517
0.00443187
0.0044891
0.00453694
0.00457547
0.00460465
0.00462434
0.00463418
0.00463343
0.00462067
0.00459344
0.00454914
0.00448408
0.00439357
0.00427216
0.00411437
0.00391599
0.00367586
0.00339757
0.00308969
0.00276076
0.00240122
0.00194242
0.00122134
0.000179768
6.50146e-05
0.000482566
0.000864183
0.00121277
0.00154214
0.00185444
0.00214922
0.00242609
0.00268516
0.002927
0.00315239
0.00336222
0.00355735
0.00373855
0.00390652
0.00406186
0.00420505
0.00433654
0.00445667
0.00456574
0.00466402
0.00475173
0.00482906
0.00489617
0.00495318
0.00500015
0.00503705
0.00506371
0.0050797
0.00508417
0.00507557
0.00505128
0.00500844
0.00494304
0.00485
0.00472352
0.00455781
0.00434842
0.00409373
0.00379619
0.00346163
0.00309318
0.00267318
0.00212869
0.00130745
0.000187566
6.66438e-05
0.000495346
0.00089133
0.00125709
0.00160591
0.00193925
0.00225589
0.00255472
0.00283537
0.00309807
0.00334345
0.00357231
0.00378549
0.00398381
0.00416799
0.00433867
0.00449638
0.00464161
0.00477474
0.00489611
0.005006
0.00510467
0.00519234
0.0052692
0.00533537
0.00539094
0.00543587
0.00546995
0.00549269
0.00550314
0.00549962
0.00547934
0.00543924
0.005375
0.00528123
0.00515179
0.00498063
0.00476295
0.00449651
0.00418228
0.00382294
0.00341596
0.0029364
0.00230833
0.00138944
0.00019463
6.81027e-05
0.000505615
0.000913938
0.00129492
0.00166128
0.0020138
0.00235046
0.00266947
0.00296996
0.00325184
0.00351557
0.00376189
0.00399164
0.00420565
0.00440471
0.0045895
0.00476061
0.00491856
0.00506379
0.00519667
0.00531752
0.00542663
0.00552425
0.00561059
0.00568582
0.00575001
0.00580313
0.00584492
0.00587485
0.00589187
0.00589416
0.00587883
0.00584259
0.00578087
0.005688
0.00555756
0.00538319
0.00515967
0.00488391
0.00455519
0.00417278
0.00372854
0.00319103
0.00248204
0.0014689
0.000201862
6.94689e-05
0.000512828
0.000931644
0.0013264
0.00170894
0.00207923
0.00243445
0.00277212
0.00309088
0.00339038
0.00367094
0.00393323
0.00417812
0.00440647
0.00461911
0.00481681
0.0050002
0.00516987
0.00532628
0.00546986
0.00560098
0.00571995
0.00582706
0.00592255
0.00600662
0.00607934
0.00614068
0.00619037
0.00622779
0.00625181
0.00626053
0.00625091
0.00621951
0.00616155
0.00607108
0.00594142
0.00576589
0.00553873
0.0052559
0.00491473
0.00451102
0.0040313
0.00343825
0.00265148
0.00154826
0.000209619
7.07626e-05
0.000516679
0.000944102
0.00135151
0.00174932
0.0021364
0.002509
0.002864
0.00319964
0.00351532
0.00381126
0.00408812
0.00434678
0.00458817
0.00481318
0.00502263
0.00521723
0.00539761
0.00556431
0.00571779
0.00585846
0.00598668
0.00610278
0.00620703
0.00629965
0.00638074
0.00645025
0.00650789
0.006553
0.00658436
0.00659995
0.00659668
0.00657099
0.00651789
0.00643118
0.00630393
0.0061291
0.00590038
0.00561261
0.0052611
0.00483823
0.00432558
0.00368051
0.00282013
0.00163155
0.000218255
7.19188e-05
0.000517005
0.000951082
0.00137029
0.00178281
0.00218599
0.00257503
0.0029462
0.0032974
0.00362791
0.00393787
0.00422797
0.00449911
0.0047523
0.0049885
0.0052086
0.00541338
0.00560352
0.00577963
0.00594221
0.00609172
0.00622858
0.00635314
0.00646572
0.00656657
0.0066558
0.00673337
0.00679895
0.00685184
0.00689075
0.00691358
0.00691716
0.00689794
0.00685068
0.00676896
0.00664562
0.00647325
0.00624493
0.00595436
0.00559483
0.00515554
0.0046137
0.00392211
0.0029954
0.00172712
0.000228186
7.29611e-05
0.000513667
0.000952492
0.00138292
0.00180989
0.00222867
0.00263332
0.00301956
0.0033851
0.00372912
0.0040518
0.00435385
0.00463625
0.00490007
0.00514635
0.00537605
0.00559002
0.00578901
0.00597368
0.0061446
0.00630226
0.00644714
0.00657963
0.00670009
0.00680881
0.00690592
0.00699137
0.00706482
0.00712552
0.00717211
0.00720242
0.00721325
0.00720119
0.00716066
0.00708506
0.00696698
0.00679872
0.00657271
0.00628158
0.00591673
0.00546456
0.00489891
0.00416971
0.00319192
0.00185876
0.000241509
3.19852e-05
7.27712e-05
0.00011348
0.000140598
0.000161956
0.000181196
0.000199891
0.000218616
0.000237183
0.000254788
0.000271234
0.000286052
0.000295723
0.000294194
0.000295162
6.90537e-05
0.000296608
0.000297029
0.000296594
0.000295493
0.000296582
0.000288882
0.000272303
0.000253007
0.000232139
0.000210516
0.000188931
0.000168664
0.000150945
0.000135582
0.000122282
0.000110469
9.9267e-05
8.75543e-05
7.40516e-05
5.76551e-05
3.80335e-05
5.39477e-05
0.000295841
0.000234397
0.000315598
0.000377776
0.000433463
0.000487121
0.00053985
0.000591539
0.000639972
0.000686517
0.000730986
0.000770112
0.000768704
0.00071185
0.00070836
0.000692634
0.000716013
0.000721499
0.000725318
0.000740079
0.000822035
0.00090594
0.000884235
0.000844627
0.000795481
0.000738685
0.000676006
0.000607195
0.000539144
0.000477526
0.000423854
0.000377808
0.000337391
0.000299461
0.000260182
0.000216208
0.00016295
0.000250016
7.72551e-05
0.000381698
0.000522553
0.000628776
0.000724664
0.000815575
0.000902412
0.000985021
0.00106196
0.00113588
0.00120697
0.00127368
0.0013227
0.00133848
0.00136264
0.00138921
0.00141778
0.00144673
0.00147957
0.00152092
0.00157579
0.00159035
0.00156172
0.00151308
0.00144749
0.00136593
0.00126972
0.00115922
0.00104071
0.00092386
0.000814551
0.000716255
0.000628982
0.000549491
0.000472131
0.000390149
0.000291128
0.000295557
8.77056e-05
0.000502308
0.000711457
0.000860353
0.00099001
0.00110906
0.00121976
0.00132316
0.00141952
0.00151228
0.00160202
0.0016884
0.00176767
0.00183023
0.00188904
0.00194499
0.00199836
0.00204835
0.00209593
0.00213957
0.00217201
0.00217435
0.00215122
0.00210683
0.00204119
0.0019541
0.00184569
0.00171583
0.00156851
0.00141264
0.00125553
0.00110411
0.000962485
0.000830354
0.00070284
0.000570292
0.000403444
7.26087e-05
9.60892e-05
0.00060099
0.000876397
0.0010619
0.00121551
0.00135144
0.00147477
0.00158833
0.00169462
0.00179762
0.00189827
0.0019967
0.00209211
0.00218066
0.00226364
0.00234109
0.00241287
0.00247834
0.00253684
0.00258551
0.00261865
0.00263051
0.0026216
0.00259145
0.00253882
0.00246263
0.00236189
0.00223515
0.00208288
0.00191033
0.00172257
0.00152713
0.00133174
0.0011409
0.000953325
0.000758686
0.000513469
7.71012e-05
0.000103161
0.000681638
0.0010156
0.00122971
0.00139737
0.00153997
0.00166637
0.00178145
0.0018901
0.0019968
0.00210252
0.00220742
0.00231148
0.00241328
0.00251077
0.00260233
0.0026871
0.00276477
0.00283435
0.00289339
0.00293841
0.00296671
0.00297694
0.00296753
0.00293681
0.00288329
0.00280524
0.00269983
0.0025637
0.00239705
0.00219992
0.00197646
0.00173496
0.00148425
0.00122854
0.000959784
0.000623832
8.17336e-05
0.000109453
0.000747291
0.0011291
0.00136293
0.00153577
0.00167702
0.0017997
0.00191055
0.00201684
0.00212322
0.00223048
0.00233832
0.0024467
0.00255496
0.00266043
0.00276075
0.00285467
0.00294222
0.00302267
0.00309417
0.00315434
0.00320113
0.00323286
0.00324784
0.00324445
0.00322114
0.00317581
0.00310463
0.00300078
0.00285936
0.00267412
0.00244248
0.00216881
0.00186307
0.00153444
0.00117937
0.00073765
8.64868e-05
0.000115288
0.0008004
0.00121773
0.00146213
0.00163285
0.00176747
0.0018829
0.00198721
0.00208942
0.00219403
0.00230138
0.00241036
0.00252055
0.00263148
0.00274074
0.00284599
0.00294594
0.00304104
0.00313094
0.00321437
0.00328952
0.0033547
0.00340843
0.00344928
0.00347592
0.00348696
0.00348029
0.00345143
0.00339087
0.00328918
0.00313401
0.0029144
0.00262673
0.00227703
0.00187596
0.00142404
0.000858939
9.1417e-05
0.000120906
0.00084294
0.00128254
0.00152866
0.00169199
0.00181795
0.0019262
0.00202526
0.00212449
0.00222799
0.00233558
0.00244513
0.00255559
0.00266676
0.00277692
0.00288408
0.00298725
0.00308718
0.00318415
0.0032775
0.00336586
0.00344796
0.00352275
0.00358925
0.00364653
0.00369355
0.0037284
0.00374626
0.00373559
0.00368328
0.00357187
0.00338199
0.00309966
0.00272197
0.0022553
0.00170022
0.000992717
9.66097e-05
0.000126527
0.000876428
0.00132433
0.00156454
0.00171806
0.00183699
0.00194179
0.00204023
0.00213968
0.00224398
0.00235276
0.00246277
0.00257238
0.00268188
0.00279069
0.00289719
0.00300089
0.00310264
0.00320364
0.00330402
0.0034029
0.00349945
0.00359322
0.0036838
0.00377077
0.00385357
0.00393059
0.00399693
0.00403956
0.00404234
0.00398383
0.00383732
0.00357798
0.00319055
0.00267093
0.00201274
0.0011447
0.000102194
0.000132394
0.000901695
0.00134344
0.00157309
0.00171825
0.00183537
0.00194353
0.00204814
0.00215174
0.00225879
0.00236954
0.00247979
0.00258737
0.00269353
0.00279893
0.00290288
0.00300459
0.00310505
0.00320669
0.00331074
0.00341685
0.00352467
0.00363448
0.00374657
0.00386115
0.0039782
0.00409659
0.00421145
0.00430869
0.00436953
0.00436942
0.00427569
0.00405349
0.00367394
0.0031177
0.00236335
0.00132058
0.000108346
0.000138826
0.000918258
0.00134011
0.00156041
0.00170322
0.00182613
0.00194591
0.002063
0.00217365
0.00228437
0.00239706
0.00250687
0.00261123
0.00271233
0.00281301
0.00291302
0.00301066
0.00310701
0.00320594
0.00331016
0.00341996
0.00353548
0.00365782
0.00378818
0.00392751
0.00407647
0.00423448
0.00439689
0.0045488
0.00466906
0.00473046
0.00469544
0.00452059
0.0041638
0.00358808
0.00275002
0.00152484
0.00011529
0.000146279
0.000923767
0.00131703
0.00153729
0.00168748
0.00182313
0.00196061
0.00209281
0.00221104
0.00232499
0.00243893
0.00254733
0.00264747
0.00274305
0.00283829
0.00293335
0.00302568
0.00311584
0.00320913
0.00331025
0.00342032
0.00353991
0.00367107
0.00381613
0.00397693
0.00415494
0.00435031
0.00455877
0.00476482
0.00494505
0.00506977
0.00509715
0.00497646
0.00465367
0.00407384
0.00316715
0.00175935
0.000123288
0.000155526
0.000917209
0.00128587
0.00151915
0.00168651
0.00183732
0.0019913
0.00213534
0.00225958
0.00237544
0.00248979
0.00259732
0.00269443
0.00278506
0.00287462
0.00296425
0.00305087
0.00313391
0.00321954
0.00331484
0.00342217
0.00354246
0.00367879
0.00383489
0.00401374
0.00421775
0.004448
0.0047008
0.00496025
0.00520079
0.00539016
0.0054825
0.00542049
0.00513949
0.00456763
0.00360686
0.00202225
0.000132628
0.000168249
0.000905821
0.00126914
0.00151756
0.00170749
0.00186914
0.00202772
0.00217338
0.00230406
0.0024235
0.00253965
0.00264853
0.00274546
0.00283342
0.00291818
0.00300239
0.00308346
0.00315973
0.00323696
0.00332456
0.00342668
0.00354473
0.00368281
0.00384643
0.00403994
0.00426691
0.00452952
0.00482494
0.00513707
0.0054383
0.00569375
0.00585339
0.00585343
0.00561947
0.00506403
0.00406072
0.00230751
0.000143627
0.000196956
0.00092952
0.00127289
0.00151649
0.00172901
0.00189136
0.00203873
0.00218234
0.00232678
0.00245469
0.00257644
0.00269064
0.0027917
0.0028811
0.0029637
0.00304329
0.00311874
0.00318937
0.00325908
0.00333814
0.0034331
0.00354635
0.00368308
0.0038508
0.00405565
0.00430262
0.00459517
0.00493155
0.00529592
0.00565837
0.00598172
0.00621136
0.00627666
0.00609361
0.00556002
0.00452151
0.00260539
0.000156772
7.40136e-05
0.000504957
0.000947602
0.0013929
0.00184022
0.00228109
0.00270767
0.00311497
0.00350047
0.00386336
0.00420382
0.00452262
0.00482084
0.00509964
0.00536016
0.00560349
0.00583056
0.00604225
0.00623928
0.00642231
0.00659196
0.00674874
0.00689316
0.00702566
0.00714658
0.00725613
0.00735426
0.00744066
0.00751451
0.00757442
0.00761808
0.00764212
0.00764245
0.00761382
0.00754948
0.00744178
0.00728257
0.00706342
0.00677532
0.0064071
0.00594165
0.00534965
0.00458216
0.00357368
0.00228244
0.000706906
7.48043e-05
0.000477348
0.000920248
0.00138732
0.00186366
0.00233318
0.00278573
0.00321639
0.00362322
0.00400581
0.00436463
0.00470064
0.00501507
0.00530924
0.00558445
0.0058419
0.00608267
0.00630773
0.00651796
0.00671411
0.00689691
0.00706701
0.00722503
0.00737154
0.00750698
0.00763164
0.00774553
0.00784832
0.00793919
0.00801666
0.00807831
0.0081205
0.00813801
0.008126
0.00807766
0.00798525
0.00784028
0.00763363
0.00735507
0.00699173
0.00652527
0.00592781
0.00515916
0.00417422
0.00295885
0.00157969
7.44876e-05
0.000430324
0.00087632
0.00137226
0.00187931
0.00237378
0.00284605
0.00329328
0.00371489
0.00411111
0.00448266
0.00483069
0.00515654
0.00546166
0.00574744
0.00601518
0.00626608
0.0065012
0.00672151
0.00692788
0.00712113
0.00730203
0.00747135
0.00762977
0.00777789
0.00791606
0.00804434
0.00816239
0.00826939
0.00836388
0.00844341
0.00850417
0.0085407
0.00854776
0.00851867
0.00844587
0.00832098
0.00813491
0.00787728
0.00753522
0.00709174
0.00652401
0.00580358
0.00490506
0.00383623
0.002698
7.31559e-05
0.000365095
0.000829769
0.00136503
0.0019006
0.00241109
0.00289294
0.00334781
0.00377672
0.00418012
0.00455872
0.00491366
0.00524635
0.00555828
0.00585086
0.00612542
0.0063832
0.00662534
0.0068529
0.00706682
0.00726802
0.00745737
0.00763576
0.00780409
0.0079631
0.00811327
0.00825462
0.00838677
0.00850892
0.00861974
0.00871696
0.00879672
0.0088534
0.00888111
0.00887341
0.00882329
0.00872306
0.00856448
0.00833803
0.00803192
0.00763204
0.00712202
0.0064849
0.00571175
0.00482466
0.00392224
7.20017e-05
0.0002921
0.000804114
0.00138581
0.00194124
0.00245515
0.00293512
0.00338866
0.00381787
0.0042225
0.00460272
0.00495961
0.00529467
0.00560938
0.00590518
0.00618341
0.00644507
0.00669137
0.00692338
0.00714209
0.00734844
0.00754338
0.00772795
0.00790327
0.00807034
0.00822971
0.00838137
0.00852494
0.00865996
0.00878569
0.00890019
0.00899933
0.00907705
0.00912627
0.00914086
0.00911493
0.00904207
0.00891595
0.00872857
0.00846927
0.00812723
0.00769223
0.00715598
0.00652009
0.00581181
0.00510781
8.62713e-05
0.000311517
0.000817371
0.00139202
0.00194433
0.0024574
0.00293717
0.00339062
0.00381977
0.00422435
0.00460452
0.00496134
0.00529629
0.00561086
0.00590774
0.00619128
0.00645687
0.00670531
0.00693982
0.0071614
0.00737103
0.00756968
0.00775858
0.00793926
0.00811326
0.00828133
0.0084429
0.00859672
0.00874218
0.00887913
0.00900676
0.00912029
0.00921437
0.00928236
0.0093181
0.00931583
0.00927031
0.009179
0.00903575
0.00882929
0.00855212
0.00819921
0.00776702
0.00726154
0.00670822
0.0061598
0.000116627
0.000618534
0.00122538
0.00177378
0.00228941
0.00278736
0.00326574
0.00372359
0.00415935
0.00457092
0.0049562
0.0053132
0.00563958
0.00593177
0.00618325
0.00638023
0.00657728
0.00678875
0.00700102
0.00720781
0.00740691
0.0075978
0.00778083
0.00795693
0.00812713
0.00829193
0.00845072
0.00860236
0.00874619
0.00888643
0.00903126
0.00916502
0.00928164
0.00936619
0.00941342
0.00942333
0.00939731
0.00933903
0.00924284
0.00909011
0.00887794
0.00860679
0.00827295
0.00788256
0.00745727
0.0070319
0.000123948
0.000767499
0.00143548
0.00201165
0.00254982
0.00306477
0.00355708
0.00402737
0.00447567
0.00490119
0.00530305
0.00568069
0.00603401
0.00636366
0.00667139
0.00696124
0.00724004
0.007508
0.0077638
0.00800703
0.00823794
0.00845698
0.00866464
0.00886113
0.00904601
0.00921739
0.00937057
0.00949589
0.00957422
0.00955119
0.00918826
0.00919749
0.00929154
0.00937149
0.00942354
0.00943697
0.00941982
0.00939162
0.00933764
0.00922932
0.00907372
0.00888015
0.00863524
0.00834202
0.00802129
0.00769639
0.000121387
0.000824076
0.00155612
0.00218136
0.00276206
0.003313
0.00383694
0.00433535
0.00480935
0.00525964
0.00568669
0.00609107
0.00647356
0.00683524
0.00717746
0.00750181
0.00780991
0.00810285
0.00838143
0.00864644
0.00889863
0.00913867
0.00936699
0.00958355
0.00978746
0.00997623
0.0101445
0.010282
0.0103725
0.0103914
0.0103187
0.0103049
0.0102957
0.0101671
0.00961954
0.00948181
0.00943576
0.00939779
0.00934532
0.0092401
0.00911766
0.00899466
0.00882494
0.00860684
0.00836951
0.00813146
0.000118426
0.000854679
0.00161397
0.00228894
0.0029182
0.00351313
0.00407661
0.00461012
0.00511509
0.00559292
0.00604492
0.00647239
0.00687664
0.007259
0.00762083
0.00796353
0.00828856
0.00859738
0.00889136
0.00917174
0.00943957
0.00969573
0.00994079
0.0101748
0.0103971
0.0106056
0.0107962
0.0109618
0.0110929
0.0111811
0.0112305
0.0112716
0.0112847
0.011208
0.0109856
0.0107953
0.0105405
0.00986268
0.00940849
0.00925657
0.00911321
0.00900327
0.00885725
0.00867207
0.0084941
0.00832766
0.00011694
0.000857774
0.00163187
0.0023522
0.00303058
0.0036717
0.0042769
0.0048472
0.00538409
0.0058894
0.00636503
0.00681294
0.00723505
0.00763322
0.00800929
0.00836506
0.00870236
0.00902298
0.00932863
0.00962086
0.00990103
0.0101703
0.0104293
0.0106786
0.0109176
0.011145
0.0113579
0.011552
0.0117215
0.0118623
0.0119759
0.012068
0.0121302
0.0121361
0.0120694
0.0119613
0.0117805
0.0114458
0.0110874
0.0106796
0.00977264
0.00907866
0.00888443
0.00867836
0.00850389
0.00834764
0.000116755
0.000837571
0.00162755
0.00238969
0.00311547
0.0038021
0.00444849
0.00505497
0.00562304
0.00615486
0.00665291
0.00711976
0.00755795
0.00796994
0.00835811
0.00872477
0.00907216
0.00940243
0.00971759
0.0100195
0.0103098
0.0105899
0.0108607
0.0111228
0.0113763
0.0116201
0.0118524
0.0120701
0.0122696
0.0124477
0.0126035
0.0127368
0.0128426
0.0129081
0.0129244
0.0128951
0.0128105
0.0126476
0.0124245
0.0121299
0.011687
0.0112559
0.0108931
0.0103732
0.0090629
0.00847944
0.000117079
0.000814146
0.00161739
0.00241741
0.0031874
0.003917
0.00460235
0.005243
0.00584042
0.00639713
0.00691613
0.00740058
0.0078536
0.00827823
0.00867735
0.00905374
0.00941002
0.00974869
0.0100721
0.0103822
0.0106811
0.0109703
0.0112509
0.0115238
0.0117891
0.0120463
0.0122941
0.0125302
0.012752
0.0129568
0.0131426
0.0133078
0.0134486
0.0135577
0.0136282
0.0136579
0.0136435
0.013576
0.0134552
0.0132796
0.0130374
0.0127612
0.0124658
0.0120861
0.0115445
0.0111363
0.00011785
0.000794368
0.00161131
0.0024462
0.00325656
0.0040254
0.00474631
0.00541808
0.00604222
0.00662159
0.00715968
0.00766019
0.00812676
0.00856294
0.00897208
0.00935735
0.00972173
0.010068
0.0103987
0.0107162
0.0110225
0.0113194
0.0116082
0.0118899
0.0121647
0.0124323
0.012692
0.0129419
0.0131799
0.0134038
0.0136114
0.0138005
0.0139681
0.0141093
0.0142191
0.0142941
0.0143309
0.0143255
0.0142763
0.0141833
0.0140446
0.0138668
0.0136574
0.0134063
0.0131046
0.0128186
0.000119045
0.000780967
0.00161415
0.0024817
0.0033284
0.00413209
0.00488445
0.00558372
0.00623146
0.00683086
0.00738587
0.00790066
0.00837936
0.00882596
0.00924421
0.00963761
0.0100094
0.0103627
0.0107002
0.0110243
0.0113373
0.0116409
0.0119366
0.0122253
0.0125076
0.0127832
0.0130516
0.0133113
0.0135608
0.0137979
0.0140208
0.0142272
0.0144144
0.0145788
0.0147165
0.0148244
0.0148998
0.0149399
0.0149425
0.0149071
0.0148337
0.0147243
0.0145834
0.0144125
0.0142122
0.0140001
0.000120558
0.000774556
0.00162706
0.00252531
0.00340429
0.00423832
0.00501782
0.00574075
0.00640878
0.00702544
0.00759507
0.00812228
0.00861163
0.00906747
0.00949389
0.0098947
0.0102734
0.0106332
0.0109769
0.0113072
0.0116261
0.0119357
0.0122372
0.0125318
0.0128198
0.0131012
0.0133757
0.013642
0.0138989
0.0141447
0.0143774
0.0145952
0.0147955
0.0149756
0.0151323
0.0152629
0.015365
0.0154363
0.015475
0.0154802
0.0154515
0.0153896
0.0152972
0.0151773
0.015032
0.0148685
0.000122232
0.000774439
0.00164872
0.00257559
0.00348291
0.00434291
0.00514539
0.00588826
0.00657338
0.0072046
0.00778661
0.00832441
0.00882291
0.00928682
0.0097205
0.010128
0.010513
0.0108788
0.0112284
0.0115643
0.0118887
0.0122036
0.0125101
0.0128093
0.0131016
0.0133871
0.0136654
0.0139356
0.0141965
0.0144468
0.0146848
0.0149087
0.0151165
0.0153057
0.0154738
0.0156185
0.0157375
0.015829
0.0158911
0.0159228
0.0159234
0.015893
0.0158333
0.0157466
0.0156353
0.0155039
0.000123909
0.0007792
0.00167656
0.00262963
0.00356151
0.00444345
0.00526511
0.00602453
0.00672379
0.00736706
0.00795937
0.00850603
0.00901229
0.00948313
0.00992317
0.0103366
0.0107274
0.0110987
0.0114537
0.0117948
0.0121242
0.0124436
0.0127543
0.0130572
0.0133525
0.0136404
0.0139205
0.0141921
0.0144541
0.0147055
0.0149446
0.0151701
0.0153801
0.0155727
0.0157457
0.015897
0.0160249
0.0161274
0.016203
0.0162503
0.0162686
0.0162576
0.0162183
0.0161523
0.0160619
0.0159509
0.000125472
0.000787192
0.0017076
0.00268415
0.00363704
0.00453729
0.00537475
0.00614768
0.00685846
0.00751153
0.00811223
0.00866618
0.00917891
0.00965563
0.0101012
0.0105199
0.0109158
0.0112921
0.011652
0.0119978
0.0123316
0.012655
0.012969
0.0132744
0.0135716
0.0138603
0.0141404
0.0144111
0.0146716
0.0149208
0.0151575
0.0153805
0.0155882
0.0157791
0.0159513
0.0161031
0.0162329
0.016339
0.0164199
0.0164743
0.0165013
0.0165005
0.0164722
0.0164178
0.0163393
0.0162403
0.000126845
0.000796861
0.00173912
0.00273623
0.0037068
0.00462213
0.0054724
0.00625618
0.00697614
0.007637
0.0082444
0.00880422
0.00932223
0.00980386
0.0102541
0.0106774
0.0110778
0.0114586
0.0118228
0.0121728
0.0125103
0.0128368
0.0131532
0.0134602
0.0137578
0.0140459
0.0143241
0.0145919
0.0148483
0.0150926
0.0153237
0.0155406
0.0157421
0.0159268
0.0160934
0.0162404
0.0163664
0.0164699
0.0165496
0.0166042
0.0166329
0.016635
0.0166107
0.0165611
0.016488
0.0163948
0.000127988
0.000806922
0.00176898
0.00278366
0.00376887
0.00469638
0.00555681
0.00634906
0.00707612
0.00774298
0.00835555
0.00891995
0.00944215
0.00992778
0.0103819
0.0108092
0.0112134
0.0115981
0.011966
0.0123194
0.0126599
0.0129887
0.0133066
0.0136139
0.0139106
0.0141965
0.0144711
0.0147339
0.014984
0.0152208
0.0154434
0.0156511
0.0158428
0.0160176
0.0161744
0.0163121
0.0164295
0.0165254
0.0165986
0.0166479
0.0166726
0.016672
0.0166463
0.0165962
0.0165236
0.0164319
0.000128891
0.00081643
0.00179573
0.00282506
0.00382209
0.00475918
0.00562739
0.00642599
0.00715827
0.00782951
0.00844584
0.00901363
0.00953903
0.0100278
0.0104851
0.0109155
0.0113231
0.011711
0.012082
0.012438
0.0127807
0.0131108
0.0134291
0.0137355
0.01403
0.0143121
0.0145813
0.0148371
0.0150788
0.0153057
0.0155173
0.0157128
0.0158918
0.0160534
0.016197
0.0163216
0.0164264
0.0165105
0.0165727
0.0166123
0.0166284
0.0166207
0.0165891
0.0165345
0.0164587
0.0163649
0.000129558
0.00082476
0.00181855
0.00285974
0.00386605
0.00481037
0.00568422
0.00648724
0.00722302
0.00789713
0.00851595
0.00908602
0.00961366
0.0101047
0.0105644
0.0109974
0.0114076
0.0117981
0.0121714
0.0125293
0.0128732
0.0132038
0.0135213
0.0138256
0.0141164
0.0143931
0.0146553
0.0149023
0.0151335
0.0153484
0.0155465
0.0157276
0.0158911
0.0160367
0.016164
0.0162724
0.0163614
0.0164301
0.0164779
0.0165041
0.016508
0.0164894
0.0164484
0.0163859
0.0163037
0.016205
0.000130004
0.00083156
0.00183711
0.00288763
0.0039009
0.00485033
0.00572788
0.00653355
0.00727126
0.00794686
0.00856695
0.00913826
0.00966723
0.0101598
0.0106212
0.0110561
0.0114682
0.0118605
0.0122355
0.0125946
0.0129388
0.0132687
0.0135843
0.0138852
0.0141709
0.0144409
0.0146944
0.0149308
0.0151496
0.0153505
0.0155332
0.0156975
0.0158433
0.0159706
0.0160791
0.0161687
0.016239
0.0162896
0.01632
0.0163298
0.0163185
0.0162861
0.0162328
0.0161595
0.0160682
0.0159623
0.000130248
0.000836672
0.00185141
0.00290897
0.00392717
0.00487982
0.0057593
0.00656602
0.00730422
0.00798002
0.00860026
0.00917181
0.00970125
0.0101945
0.010657
0.0110931
0.0115064
0.0119
0.0122758
0.0126352
0.012979
0.0133073
0.0136198
0.0139161
0.0141955
0.0144572
0.0147004
0.0149246
0.0151294
0.0153146
0.01548
0.0156257
0.0157519
0.0158587
0.0159464
0.016015
0.0160644
0.0160947
0.0161054
0.0160964
0.0160675
0.0160188
0.0159507
0.0158643
0.0157617
0.0156462
0.000130311
0.000840066
0.00186168
0.00292428
0.00394559
0.00489978
0.00577965
0.00658597
0.00732335
0.00799818
0.0086175
0.00918837
0.00971744
0.0102107
0.0106735
0.0111101
0.0115242
0.0119182
0.0122942
0.0126532
0.0129956
0.0133213
0.0136299
0.0139205
0.0141923
0.0144443
0.014676
0.0148866
0.0150759
0.0152437
0.0153902
0.0155157
0.0156207
0.0157055
0.0157707
0.0158166
0.0158435
0.0158516
0.0158409
0.0158113
0.0157629
0.015696
0.0156112
0.0155097
0.0153937
0.0152666
0.000130211
0.00084179
0.00186822
0.00293412
0.003957
0.00491129
0.00579017
0.00659482
0.0073302
0.00800299
0.00862044
0.00918977
0.0097177
0.0102103
0.0106727
0.0111092
0.0115233
0.0119173
0.0122928
0.0126506
0.0129909
0.0133132
0.0136169
0.0139007
0.0141639
0.0144052
0.0146241
0.0148199
0.0149924
0.0151416
0.015268
0.015372
0.0154544
0.015516
0.0155574
0.0155795
0.0155826
0.0155673
0.0155338
0.0154824
0.0154132
0.0153267
0.0152237
0.0151054
0.0149742
0.0148338
0.000129967
0.000841933
0.00187137
0.00293911
0.00396223
0.00491538
0.00579211
0.00659399
0.00732636
0.00799616
0.00861088
0.00917787
0.00970394
0.0101951
0.0106566
0.0110925
0.011506
0.0118993
0.0122737
0.0126298
0.0129673
0.0132855
0.0135833
0.0138597
0.0141132
0.014343
0.0145481
0.014728
0.0148827
0.0150124
0.0151176
0.0151992
0.0152582
0.0152956
0.0153125
0.0153099
0.0152886
0.0152492
0.0151923
0.0151182
0.0150274
0.0149204
0.0147981
0.0146618
0.0145141
0.0143587
0.000129598
0.000840608
0.00187151
0.00293983
0.0039621
0.00491306
0.00578665
0.00658484
0.00731332
0.00797934
0.00859058
0.00915455
0.0096781
0.0101673
0.0106272
0.0110619
0.0114743
0.0118664
0.0122392
0.0125929
0.012927
0.0132405
0.013532
0.0138002
0.0140435
0.0142609
0.0144515
0.0146148
0.014751
0.0148604
0.0149438
0.0150024
0.0150374
0.0150502
0.0150423
0.0150147
0.0149687
0.0149051
0.0148246
0.0147278
0.0146151
0.0144873
0.0143451
0.0141901
0.0140248
0.0138531
0.000129119
0.000837947
0.00186897
0.00293683
0.00395731
0.00490523
0.00577487
0.00656862
0.0072925
0.00795407
0.00856122
0.00912156
0.00964203
0.0101287
0.0105865
0.0110195
0.0114303
0.0118207
0.0121915
0.0125424
0.0128727
0.013181
0.0134657
0.0137252
0.0139578
0.0141623
0.0143379
0.0144842
0.0146014
0.0146901
0.0147514
0.0147868