/*--------------------------------*- C++ -*----------------------------------*\
  =========                 |
  \\      /  F ield         | OpenFOAM: The Open Source CFD Toolbox
   \\    /   O peration     | Website:  https://openfoam.org
    \\  /    A nd           | Version:  7
     \\/     M anipulation  |
\*---------------------------------------------------------------------------*/
FoamFile
{
    version     2.0;
    format      ascii;
    class       volScalarField;
    location    "0.45";
    object      p;
}
// * * * * * * * * * * * * * * * * * * * * * * * * * * * * * * * * * * * * * //

dimensions      [1 -1 -2 0 0 0 0];

internalField   nonuniform List<scalar> 
9072
(
749.501
748.039
750.868
755.882
762.301
768.915
775.283
781.192
786.614
791.594
796.22
800.597
804.827
809.009
813.234
817.589
822.151
826.993
832.188
837.806
843.919
850.602
857.934
866.001
874.896
884.725
895.608
907.682
921.11
936.085
952.886
971.652
992.642
1016.06
1042.16
1071.06
1102.63
1136.31
1170.87
1204.29
1234.48
1258.29
1272
1282.41
1299.07
1321.32
720.189
718.226
720.307
724.702
730.478
736.64
742.716
748.478
753.849
758.842
763.521
767.971
772.284
776.551
780.86
785.293
789.928
794.84
800.103
805.789
811.973
818.734
826.155
834.324
843.342
853.318
864.378
876.667
890.35
905.616
922.658
941.831
963.287
987.322
1014.17
1043.98
1076.66
1111.67
1147.72
1182.54
1213.47
1237.9
1248.23
1253.25
1261.7
1286.36
689.817
688.311
690.27
693.966
699.054
704.62
710.257
715.716
720.894
725.778
730.408
734.848
739.177
743.476
747.825
752.303
756.988
761.952
767.271
773.019
779.275
786.119
793.639
801.929
811.091
821.244
832.517
845.062
859.051
874.68
892.165
911.794
933.807
958.467
985.986
1016.49
1049.86
1085.53
1122.2
1157.58
1188.69
1213.26
1223.08
1226.72
1227.1
1254.53
659.211
658.273
660.202
663.489
667.989
673.012
678.191
683.294
688.211
692.914
697.424
701.79
706.075
710.353
714.698
719.183
723.883
728.871
734.222
740.011
746.32
753.231
760.837
769.233
778.528
788.843
800.314
813.098
827.371
843.333
861.2
881.238
903.707
928.854
956.869
987.834
1021.59
1057.53
1094.36
1129.9
1161.05
1185.81
1197.92
1201.99
1197.54
1226.41
628.592
628.262
630.209
633.209
637.257
641.818
646.576
651.327
655.964
660.453
664.801
669.048
673.247
677.463
681.763
686.219
690.902
695.883
701.237
707.041
713.377
720.331
727.995
736.471
745.868
756.311
767.941
780.918
795.42
811.648
829.818
850.179
872.987
898.47
926.795
958.004
991.896
1027.85
1064.63
1100.21
1131.63
1156.8
1171.35
1177.91
1175.25
1203.67
597.971
598.297
600.226
603.027
606.716
610.881
615.259
619.677
624.036
628.298
632.465
636.569
640.654
644.78
649.009
653.408
658.048
662.998
668.332
674.128
680.468
687.44
695.138
703.664
713.132
723.668
735.416
748.536
763.211
779.639
798.033
818.631
841.672
867.365
895.851
927.139
961.001
996.829
1033.46
1069.08
1101.04
1127.17
1144.61
1154.7
1156.91
1186.7
567.25
568.246
570.186
572.847
576.244
580.068
584.105
588.211
592.3
596.335
600.314
604.261
608.217
612.235
616.374
620.699
625.277
630.178
635.474
641.243
647.568
654.536
662.245
670.796
680.305
690.901
702.727
715.947
730.741
747.307
765.852
786.603
809.78
835.574
864.102
895.346
929.069
964.689
1001.15
1036.85
1069.51
1097.07
1117.33
1132.01
1140.83
1174.55
536.389
538.005
540.011
542.592
545.757
549.286
553.019
556.838
560.671
564.484
568.273
572.058
575.876
579.774
583.811
588.049
592.552
597.389
602.633
608.36
614.652
621.6
629.298
637.851
647.375
657.998
669.866
683.143
698.007
714.651
733.28
754.105
777.332
803.132
831.601
862.707
896.213
931.582
967.874
1003.7
1037.15
1066.36
1089.52
1109.1
1125.54
1165.45
505.4
507.543
509.661
512.211
515.192
518.47
521.933
525.491
529.084
532.684
536.287
539.909
543.584
547.358
551.285
555.425
559.843
564.606
569.785
575.457
581.703
588.613
596.283
604.815
614.328
624.95
636.826
650.119
665.006
681.676
700.324
721.151
744.348
770.07
798.398
829.291
862.525
897.615
933.743
969.728
1003.98
1034.93
1061.14
1085.53
1110.52
1157.63
474.294
476.876
479.13
481.675
484.507
487.569
490.795
494.117
497.489
500.888
504.31
507.772
511.304
514.949
518.761
522.797
527.122
531.802
536.907
542.513
548.7
555.558
563.181
571.674
581.152
591.746
603.599
616.872
631.738
648.381
666.99
687.754
710.853
736.425
764.542
795.161
828.078
862.866
898.824
934.962
969.982
1002.62
1031.93
1060.9
1094.61
1149.98
443.074
446.031
448.425
450.968
453.674
456.55
459.565
462.676
465.846
469.058
472.308
475.614
479.003
482.519
486.212
490.141
494.367
498.956
503.978
509.508
515.625
522.418
529.979
538.414
547.836
558.377
570.177
583.396
598.201
614.77
633.286
653.93
676.867
702.228
730.075
760.37
792.931
827.392
863.158
899.409
935.108
969.287
1001.52
1034.81
1077.03
1140.3
411.739
415.03
417.547
420.08
422.673
425.385
428.217
431.14
434.126
437.163
440.252
443.406
446.657
450.043
453.617
457.434
461.557
466.049
470.981
476.425
482.462
489.176
496.662
505.021
514.369
524.833
536.555
549.687
564.393
580.845
599.22
619.69
642.413
667.509
695.037
724.964
757.134
791.236
826.77
863.06
899.285
934.735
969.519
1006.51
1056.97
1127.65
380.292
383.882
386.496
389.003
391.49
394.058
396.729
399.485
402.306
405.183
408.119
411.129
414.244
417.503
420.956
424.66
428.674
433.065
437.899
443.25
449.197
455.821
463.217
471.486
480.741
491.109
502.726
515.742
530.314
546.61
564.8
585.049
607.51
632.296
659.461
688.982
720.727
754.434
789.682
825.905
862.451
898.794
935.486
975.031
1033.37
1109.65
348.729
352.589
355.262
357.725
360.111
362.553
365.084
367.694
370.367
373.098
375.891
378.764
381.748
384.881
388.215
391.803
395.706
399.989
404.72
409.97
415.817
422.341
429.635
437.799
446.945
457.196
468.686
481.558
495.964
512.067
530.031
550.02
572.177
596.613
623.379
652.46
683.747
717.02
751.918
787.952
824.57
861.335
899.01
939.369
1005.05
1082.53
317.055
321.154
323.836
326.23
328.523
330.857
333.271
335.757
338.3
340.898
343.56
346.303
349.16
352.171
355.385
358.857
362.646
366.817
371.438
376.579
382.316
388.73
395.91
403.956
412.977
423.093
434.435
447.137
461.348
477.222
494.924
514.614
536.432
560.483
586.819
615.428
646.223
679.021
713.502
749.212
785.622
822.242
859.629
898.373
969.353
1038.21
285.275
289.58
292.212
294.5
296.708
298.967
301.299
303.688
306.123
308.605
311.146
313.767
316.502
319.393
322.488
325.841
329.512
333.565
338.068
343.091
348.709
355.001
362.054
369.967
378.846
388.809
399.98
412.489
426.474
442.086
459.489
478.841
500.285
523.917
549.785
577.885
608.148
640.418
674.4
709.631
745.51
781.293
816.701
850.852
914.858
968.514
1129.05
1129.08
1129.15
1129.25
1129.39
1129.55
1129.75
1129.97
1130.21
1130.47
1130.75
1131.04
1131.34
1131.66
1131.99
1132.33
1132.67
1133.01
1133.35
1133.68
1134.01
1134.32
1134.63
1134.92
1135.2
1135.46
1135.72
1135.96
1136.18
1136.39
1136.59
1136.78
1136.94
1137.09
1137.21
1137.31
1137.37
1137.41
1129.02
1129.05
1129.12
1129.22
1129.36
1129.52
1129.71
1129.93
1130.17
1130.43
1130.71
1131
1131.31
1131.62
1131.95
1132.29
1132.63
1132.97
1133.31
1133.64
1133.97
1134.28
1134.59
1134.88
1135.16
1135.43
1135.68
1135.92
1136.15
1136.37
1136.57
1136.75
1136.92
1137.07
1137.19
1137.29
1137.35
1137.39
1128.97
1129.01
1129.08
1129.18
1129.32
1129.48
1129.67
1129.89
1130.13
1130.39
1130.67
1130.96
1131.27
1131.58
1131.91
1132.25
1132.58
1132.93
1133.26
1133.6
1133.93
1134.24
1134.55
1134.85
1135.13
1135.4
1135.65
1135.9
1136.13
1136.34
1136.55
1136.73
1136.9
1137.05
1137.17
1137.27
1137.33
1137.37
1128.92
1128.96
1129.03
1129.14
1129.27
1129.44
1129.63
1129.85
1130.09
1130.35
1130.63
1130.92
1131.22
1131.54
1131.87
1132.2
1132.54
1132.88
1133.22
1133.56
1133.89
1134.21
1134.52
1134.81
1135.1
1135.37
1135.63
1135.87
1136.11
1136.32
1136.53
1136.71
1136.88
1137.03
1137.16
1137.25
1137.32
1137.36
1128.87
1128.9
1128.97
1129.08
1129.22
1129.39
1129.59
1129.81
1130.05
1130.31
1130.58
1130.87
1131.18
1131.5
1131.82
1132.16
1132.5
1132.84
1133.18
1133.52
1133.85
1134.17
1134.48
1134.78
1135.07
1135.34
1135.6
1135.85
1136.08
1136.3
1136.51
1136.7
1136.87
1137.02
1137.14
1137.24
1137.31
1137.35
1128.8
1128.83
1128.91
1129.02
1129.16
1129.33
1129.53
1129.76
1130
1130.26
1130.54
1130.83
1131.13
1131.45
1131.78
1132.12
1132.46
1132.8
1133.15
1133.48
1133.82
1134.14
1134.45
1134.76
1135.05
1135.32
1135.58
1135.83
1136.07
1136.29
1136.49
1136.68
1136.86
1137.01
1137.13
1137.23
1137.3
1137.34
1128.72
1128.76
1128.84
1128.95
1129.1
1129.27
1129.48
1129.71
1129.95
1130.21
1130.49
1130.78
1131.09
1131.4
1131.73
1132.07
1132.42
1132.77
1133.11
1133.45
1133.79
1134.11
1134.43
1134.73
1135.02
1135.3
1135.57
1135.82
1136.05
1136.27
1136.48
1136.67
1136.84
1137
1137.12
1137.22
1137.3
1137.34
1128.64
1128.67
1128.76
1128.88
1129.03
1129.21
1129.42
1129.65
1129.9
1130.16
1130.44
1130.73
1131.04
1131.36
1131.69
1132.03
1132.38
1132.73
1133.08
1133.42
1133.76
1134.08
1134.4
1134.71
1135
1135.28
1135.55
1135.8
1136.04
1136.26
1136.47
1136.66
1136.84
1136.99
1137.12
1137.22
1137.29
1137.35
1128.53
1128.58
1128.67
1128.8
1128.95
1129.14
1129.36
1129.6
1129.85
1130.11
1130.39
1130.68
1130.99
1131.31
1131.64
1131.99
1132.34
1132.69
1133.04
1133.39
1133.73
1134.06
1134.38
1134.69
1134.99
1135.27
1135.54
1135.79
1136.03
1136.25
1136.46
1136.65
1136.83
1136.98
1137.11
1137.22
1137.3
1137.35
1128.42
1128.48
1128.58
1128.71
1128.87
1129.06
1129.29
1129.54
1129.79
1130.06
1130.34
1130.63
1130.93
1131.26
1131.59
1131.94
1132.3
1132.66
1133.01
1133.36
1133.7
1134.04
1134.36
1134.67
1134.97
1135.26
1135.53
1135.78
1136.02
1136.25
1136.45
1136.65
1136.82
1136.98
1137.11
1137.22
1137.3
1137.36
1128.29
1128.36
1128.48
1128.62
1128.78
1128.98
1129.22
1129.48
1129.73
1130
1130.28
1130.58
1130.88
1131.2
1131.54
1131.89
1132.26
1132.62
1132.98
1133.33
1133.67
1134.01
1134.34
1134.66
1134.96
1135.25
1135.52
1135.78
1136.02
1136.24
1136.45
1136.64
1136.82
1136.97
1137.11
1137.22
1137.31
1137.38
1128.13
1128.24
1128.38
1128.52
1128.69
1128.9
1129.15
1129.42
1129.68
1129.94
1130.23
1130.52
1130.82
1131.14
1131.48
1131.85
1132.22
1132.58
1132.94
1133.3
1133.65
1133.99
1134.32
1134.64
1134.95
1135.24
1135.52
1135.77
1136.01
1136.24
1136.45
1136.64
1136.81
1136.97
1137.1
1137.22
1137.32
1137.39
1127.95
1128.11
1128.27
1128.43
1128.59
1128.8
1129.08
1129.36
1129.62
1129.89
1130.17
1130.46
1130.76
1131.08
1131.43
1131.8
1132.18
1132.55
1132.91
1133.27
1133.62
1133.97
1134.31
1134.63
1134.94
1135.24
1135.51
1135.77
1136.01
1136.24
1136.44
1136.63
1136.81
1136.96
1137.1
1137.22
1137.33
1137.41
1127.73
1127.97
1128.17
1128.33
1128.49
1128.71
1129
1129.3
1129.56
1129.83
1130.11
1130.4
1130.7
1131.02
1131.37
1131.74
1132.14
1132.51
1132.88
1133.24
1133.6
1133.95
1134.29
1134.62
1134.94
1135.23
1135.51
1135.77
1136.01
1136.24
1136.44
1136.63
1136.8
1136.96
1137.1
1137.22
1137.34
1137.43
1127.45
1127.83
1128.09
1128.24
1128.4
1128.61
1128.93
1129.25
1129.51
1129.77
1130.06
1130.35
1130.64
1130.96
1131.3
1131.69
1132.1
1132.48
1132.84
1133.21
1133.57
1133.93
1134.28
1134.61
1134.93
1135.23
1135.51
1135.78
1136.02
1136.24
1136.45
1136.63
1136.8
1136.96
1137.1
1137.23
1137.35
1137.45
1127.22
1127.72
1128.04
1128.17
1128.31
1128.53
1128.88
1129.24
1129.48
1129.73
1130.02
1130.3
1130.59
1130.9
1131.25
1131.64
1132.06
1132.45
1132.81
1133.17
1133.55
1133.92
1134.27
1134.6
1134.93
1135.23
1135.52
1135.78
1136.02
1136.25
1136.45
1136.63
1136.8
1136.95
1137.09
1137.22
1137.36
1137.48
235.428
239.908
242.429
244.518
246.614
248.808
251.072
253.363
255.669
257.997
260.369
262.812
265.364
268.069
270.977
274.14
277.618
281.476
285.782
290.606
296.021
302.103
308.936
316.614
325.243
334.935
345.805
357.97
371.554
386.701
403.575
422.343
443.141
466.058
491.13
518.358
547.702
579.054
612.132
646.408
681.062
714.755
745.307
768.284
779.442
723.459
167.267
171.333
173.632
175.359
177.247
179.394
181.643
183.881
186.082
188.265
190.461
192.706
195.045
197.53
200.209
203.132
206.359
209.959
214.002
218.557
223.693
229.481
235.996
243.327
251.576
260.849
271.251
282.873
295.814
310.208
326.232
344.078
363.891
385.739
409.628
435.558
463.548
493.606
525.512
558.716
592.43
625.459
655.799
679.921
695.986
729.873
99.2013
101.638
103.203
104.175
105.871
108.209
110.622
112.876
114.989
117.03
119.053
121.104
123.24
125.522
128
130.712
133.71
137.074
140.88
145.198
150.091
155.619
161.844
168.847
176.729
185.6
195.546
206.62
218.873
232.423
247.493
264.339
283.126
303.853
326.473
350.961
377.427
406.128
436.974
469.376
502.736
536.363
569.329
600.941
632.836
680.725
38.1494
37.3754
36.6411
36.58
38.258
40.8576
43.3048
45.3191
47.0725
48.7393
50.391
52.0587
53.7937
55.6693
57.7256
59.967
62.4567
65.2873
68.5459
72.3071
76.6348
81.5795
87.1897
93.5431
100.768
109.013
118.369
128.809
140.271
152.821
166.797
182.628
200.546
220.207
241.572
264.487
289.178
316.421
346.302
377.891
410.729
444.444
478.251
511.673
545.044
582.827
5.82544
4.98694
4.94159
5.04464
5.93714
7.2861
8.56154
9.56496
10.3808
11.112
11.7913
12.4224
13.0246
13.6301
14.2231
14.6332
15.1862
15.98
17.0605
18.4861
20.3191
22.617
25.4348
28.8645
33.0979
38.4371
45.1557
53.2807
62.6037
72.9992
84.828
98.8195
115.691
134.099
154.133
175.159
197.537
223.374
252.946
283.924
316.053
349.465
382.98
415.964
448.722
483.378
1.2125
1.43613
1.43415
1.38349
1.37993
1.37944
1.37174
1.36258
1.35627
1.35421
1.35614
1.36148
1.36857
1.36978
1.34267
1.35959
1.43662
1.5563
1.72814
1.97082
2.30277
2.74251
3.30852
4.03032
4.97562
6.27475
8.08908
10.4909
13.3652
16.5294
20.4162
26.267
35.6648
50.4984
67.2598
83.7562
100.573
123.999
154.835
185.908
217.628
251.458
284.762
316.869
348.98
382.224
1.27242
1.27721
1.30704
1.33164
1.35712
1.3786
1.39592
1.41084
1.42464
1.43804
1.45154
1.46562
1.48058
1.49607
1.51052
1.51785
1.50749
1.49164
1.48053
1.4773
1.482
1.49347
1.51003
1.5299
1.55151
1.57332
1.59378
1.61325
1.63289
1.65757
1.94428
2.64646
4.26375
6.79833
10.7826
13.0604
13.6346
26.787
55.6709
83.1119
112.738
148.877
182.934
213.814
245.247
277.771
1.19384
1.218
1.23336
1.24827
1.26187
1.27484
1.28675
1.29776
1.30843
1.31926
1.33058
1.34266
1.35579
1.37063
1.38907
1.41459
1.44205
1.46354
1.4811
1.49696
1.51232
1.52787
1.54405
1.56127
1.5801
1.60146
1.62705
1.66115
1.71438
1.79476
1.80175
1.62337
1.47838
1.45904
1.24547
0.235775
-2.20776
-4.6578
-1.76781
1.04365
14.484
47.6613
78.7103
105.201
136.064
170.323
1.13726
1.14494
1.15631
1.16846
1.18026
1.19184
1.2029
1.2134
1.22364
1.23396
1.24459
1.25574
1.26766
1.28081
1.2961
1.31437
1.33327
1.3503
1.36593
1.38114
1.39669
1.41305
1.43052
1.44929
1.46966
1.49203
1.5171
1.54627
1.58235
1.62734
1.66442
1.6962
1.77333
1.89507
1.8482
1.42157
0.939441
0.597106
-0.964811
-4.69793
-9.39844
-6.51806
0.50701
8.56002
31.4173
64.1107
1.05824
1.06646
1.07681
1.08837
1.09971
1.11086
1.12172
1.1323
1.14273
1.15323
1.16396
1.17509
1.1868
1.19933
1.21298
1.22781
1.24303
1.25791
1.27253
1.28733
1.30274
1.31906
1.3365
1.35522
1.3754
1.39724
1.42101
1.44704
1.47552
1.50547
1.52856
1.53522
1.53836
1.58279
1.64834
1.69772
1.79563
1.77035
1.33499
0.563417
0.153295
-1.15829
-3.8498
-7.33849
-9.05556
-2.76945
0.977337
0.98556
0.995586
1.00661
1.01736
1.02789
1.03828
1.04857
1.05884
1.06924
1.07989
1.09094
1.1025
1.11471
1.12768
1.14136
1.15541
1.16955
1.18383
1.19846
1.21368
1.22973
1.24674
1.26485
1.28415
1.30477
1.32678
1.35014
1.3745
1.39849
1.41805
1.43189
1.45027
1.46756
1.47808
1.46388
1.46804
1.54657
1.62096
1.68789
1.64873
1.24142
0.527202
0.26486
-0.261614
-1.00115
0.893784
0.90254
0.912348
0.922796
0.932898
0.942782
0.952602
0.962424
0.972326
0.982407
0.992769
1.00351
1.01471
1.02646
1.03879
1.05165
1.0649
1.07843
1.09227
1.10654
1.12139
1.13697
1.15336
1.17063
1.18884
1.208
1.22806
1.24882
1.26981
1.28995
1.30734
1.3217
1.33606
1.34823
1.3517
1.34168
1.33569
1.34473
1.32676
1.29868
1.36414
1.42413
1.45987
1.57686
1.44532
0.94932
0.808298
0.817369
0.826824
0.836669
0.84617
0.855468
0.864748
0.874093
0.883575
0.893269
0.903249
0.913582
0.924328
0.935535
0.947222
0.959365
0.971907
0.984815
0.998116
1.01188
1.02619
1.04112
1.05672
1.07301
1.08998
1.1076
1.12573
1.1441
1.16224
1.17936
1.19444
1.20707
1.21792
1.22636
1.22929
1.22519
1.21928
1.21135
1.18796
1.15999
1.15455
1.11831
1.02704
0.999707
1.07844
1.05743
0.720983
0.730058
0.738959
0.748153
0.757085
0.765862
0.774659
0.783563
0.792634
0.801929
0.811502
0.821403
0.831674
0.842351
0.853451
0.864969
0.876886
0.889195
0.901913
0.915076
0.928723
0.942883
0.957568
0.972768
0.988446
1.00452
1.02081
1.03703
1.05274
1.06737
1.08021
1.09086
1.09924
1.10482
1.10623
1.10274
1.09617
1.08601
1.06806
1.0454
1.02319
0.986678
0.938807
0.912578
0.892951
0.826117
0.631833
0.640588
0.64879
0.65731
0.665702
0.674016
0.68239
0.690896
0.699581
0.708486
0.717653
0.727122
0.736928
0.747103
0.757666
0.76862
0.779957
0.791673
0.803771
0.816264
0.829162
0.842468
0.856168
0.870232
0.884595
0.899146
0.913694
0.927957
0.941553
0.954015
0.964837
0.973607
0.980017
0.983551
0.983425
0.979229
0.971527
0.960142
0.943459
0.922295
0.898151
0.866927
0.830884
0.799905
0.768064
0.719687
0.540825
0.548983
0.556447
0.564311
0.5722
0.580102
0.588104
0.596253
0.604579
0.613112
0.621885
0.630933
0.640293
0.649993
0.660051
0.670471
0.681243
0.692357
0.703803
0.715576
0.727669
0.74007
0.752748
0.765656
0.77871
0.79178
0.80467
0.817119
0.8288
0.839339
0.848329
0.855379
0.860118
0.862086
0.860758
0.855817
0.847331
0.835109
0.81846
0.797665
0.77336
0.744211
0.711242
0.678594
0.644797
0.60453
0.447974
0.455349
0.462124
0.46939
0.476823
0.484355
0.492023
0.499845
0.507834
0.516012
0.524407
0.533052
0.541981
0.551224
0.560796
0.570694
0.580901
0.591397
0.602162
0.61318
0.624435
0.635902
0.647543
0.659293
0.671054
0.682684
0.693994
0.704749
0.714679
0.723478
0.730804
0.736296
0.739582
0.740265
0.737947
0.732345
0.723338
0.710723
0.694174
0.673782
0.649824
0.622
0.591042
0.55896
0.525629
0.489732
0.353361
0.359877
0.366061
0.372807
0.379831
0.387027
0.394385
0.401898
0.409567
0.417402
0.42543
0.433682
0.442192
0.450986
0.460074
0.469446
0.479077
0.488937
0.498999
0.509239
0.519635
0.530158
0.540759
0.55136
0.561851
0.572088
0.581896
0.591074
0.599398
0.606614
0.612427
0.616506
0.618503
0.618067
0.614872
0.608648
0.599207
0.586365
0.569946
0.54999
0.526661
0.500035
0.470697
0.43975
0.40747
0.373969
0.257141
0.262813
0.268514
0.274821
0.281479
0.288362
0.295424
0.302637
0.30999
0.317488
0.325153
0.333013
0.341101
0.34944
0.358034
0.366865
0.375901
0.385105
0.394444
0.403891
0.413421
0.423
0.432569
0.442038
0.451293
0.460193
0.468586
0.476302
0.483155
0.488927
0.493353
0.496133
0.496952
0.495499
0.491475
0.484622
0.474732
0.461651
0.445285
0.425667
0.40293
0.37725
0.349097
0.319221
0.288039
0.256102
0.159511
0.164423
0.169733
0.175668
0.181998
0.188582
0.195352
0.202265
0.2093
0.216456
0.223751
0.231208
0.238859
0.246724
0.254802
0.26307
0.271489
0.280018
0.288619
0.297264
0.305929
0.314573
0.323127
0.331493
0.339556
0.347188
0.354257
0.360621
0.36612
0.370556
0.373693
0.375257
0.374963
0.37253
0.367676
0.360148
0.349746
0.336348
0.31991
0.300473
0.27814
0.2531
0.225752
0.196691
0.16636
0.135377
0.0606889
0.0649579
0.0699433
0.0755571
0.0815828
0.087876
0.0943507
0.100955
0.107663
0.114465
0.121371
0.128406
0.135597
0.142961
0.150496
0.158174
0.165953
0.173789
0.181644
0.18949
0.197298
0.205022
0.212586
0.219887
0.226812
0.233248
0.239082
0.24419
0.248423
0.251601
0.253507
0.253899
0.25252
0.249101
0.243376
0.2351
0.224099
0.210284
0.193637
0.174194
0.152036
0.127337
0.100454
0.0718923
0.0420451
0.0114821
-0.0391161
-0.0353677
-0.0306627
-0.025338
-0.0196018
-0.0136016
-0.0074308
-0.00114749
0.00521474
0.0116421
0.0181385
0.0247256
0.0314286
0.0382644
0.0452282
0.0522919
0.0594131
0.0665463
0.0736537
0.0807069
0.0876735
0.0944999
0.101103
0.107379
0.113222
0.118533
0.123207
0.127127
0.13015
0.13211
0.132815
0.132049
0.129575
0.125136
0.118475
0.109373
0.0976853
0.0833473
0.0663454
0.0466965
0.024469
-0.000172622
-0.0269132
-0.0553196
-0.0850683
-0.11564
-0.139719
-0.136381
-0.13193
-0.126877
-0.121426
-0.115726
-0.109874
-0.10393
-0.0979339
-0.0919051
-0.0858428
-0.0797289
-0.0735383
-0.0672547
-0.0608828
-0.0544497
-0.0479973
-0.0415694
-0.0352036
-0.0289315
-0.0227907
-0.0168413
-0.0111707
-0.00587983
-0.00106694
0.00317334
0.00673854
0.00950668
0.0113422
0.0120965
0.0116047
0.00967345
0.00607667
0.000567698
-0.00709407
-0.0170977
-0.0295581
-0.044533
-0.0620465
-0.0820994
-0.104635
-0.129498
-0.15642
-0.185046
-0.215115
-0.246159
-0.240965
-0.237947
-0.233737
-0.228948
-0.223785
-0.218398
-0.212882
-0.2073
-0.201693
-0.196086
-0.19048
-0.18486
-0.179199
-0.173483
-0.167714
-0.161919
-0.156137
-0.150409
-0.144776
-0.139273
-0.133945
-0.128856
-0.124095
-0.119759
-0.115942
-0.112739
-0.110263
-0.108638
-0.107991
-0.108447
-0.110145
-0.113262
-0.118016
-0.124647
-0.13337
-0.144345
-0.157666
-0.173397
-0.191585
-0.21224
-0.235313
-0.260666
-0.28809
-0.317309
-0.348104
-0.380027
-0.342732
-0.339965
-0.335989
-0.331462
-0.326595
-0.321536
-0.316376
-0.311177
-0.305983
-0.300819
-0.295687
-0.290572
-0.28545
-0.280306
-0.275143
-0.269985
-0.264868
-0.259835
-0.254926
-0.250184
-0.245659
-0.241421
-0.237558
-0.23416
-0.231322
-0.229149
-0.227765
-0.227294
-0.227849
-0.229529
-0.23245
-0.23678
-0.242732
-0.250533
-0.26037
-0.272376
-0.286648
-0.303266
-0.322294
-0.34375
-0.367585
-0.393704
-0.421952
-0.452112
-0.483973
-0.517058
-0.444924
-0.442354
-0.43861
-0.434345
-0.429785
-0.425069
-0.420284
-0.41549
-0.410728
-0.406021
-0.401373
-0.396768
-0.392186
-0.387613
-0.383053
-0.378528
-0.374074
-0.36973
-0.365543
-0.36156
-0.357838
-0.354448
-0.351476
-0.349012
-0.347156
-0.346025
-0.34575
-0.346452
-0.348222
-0.351139
-0.355307
-0.360885
-0.36808
-0.377093
-0.388089
-0.401195
-0.416518
-0.43416
-0.454194
-0.476641
-0.501469
-0.528623
-0.558006
-0.58943
-0.622669
-0.657305
-0.547461
-0.54505
-0.541533
-0.537534
-0.533288
-0.52893
-0.524537
-0.520164
-0.515847
-0.511608
-0.507449
-0.503355
-0.49931
-0.495304
-0.491344
-0.487453
-0.483661
-0.48001
-0.476549
-0.473331
-0.470417
-0.467878
-0.465801
-0.464278
-0.463418
-0.46335
-0.464204
-0.46609
-0.469085
-0.473252
-0.478691
-0.485555
-0.494032
-0.504304
-0.516517
-0.530805
-0.547295
-0.566106
-0.587311
-0.610933
-0.636972
-0.665415
-0.696196
-0.729131
-0.76399
-0.800326
-0.650281
-0.647997
-0.644703
-0.640969
-0.637044
-0.633053
-0.629063
-0.625122
-0.62126
-0.617495
-0.613825
-0.610242
-0.606733
-0.603294
-0.599937
-0.596683
-0.593561
-0.590614
-0.587892
-0.585452
-0.583355
-0.581676
-0.580501
-0.579933
-0.58009
-0.581103
-0.583097
-0.586171
-0.590391
-0.595818
-0.602552
-0.610739
-0.620546
-0.632129
-0.645632
-0.661205
-0.678994
-0.699118
-0.72165
-0.746628
-0.774085
-0.804046
-0.836453
-0.871114
-0.907789
-0.946095
-0.753329
-0.751149
-0.748072
-0.7446
-0.740997
-0.737376
-0.733795
-0.73029
-0.726886
-0.723596
-0.720418
-0.717347
-0.714378
-0.711513
-0.708768
-0.706161
-0.703722
-0.701493
-0.699527
-0.697881
-0.696616
-0.695807
-0.695549
-0.69595
-0.697138
-0.699242
-0.702379
-0.706635
-0.712079
-0.718779
-0.726835
-0.736381
-0.747561
-0.760516
-0.775397
-0.792367
-0.811585
-0.833164
-0.857175
-0.883682
-0.912751
-0.944426
-0.978644
-1.01522
-1.05392
-1.0944
-0.85656
-0.854466
-0.851596
-0.848381
-0.845096
-0.841843
-0.838667
-0.835598
-0.832651
-0.829836
-0.827153
-0.824601
-0.82218
-0.819901
-0.817778
-0.815832
-0.81409
-0.812596
-0.811405
-0.810569
-0.810152
-0.81023
-0.810901
-0.812284
-0.814511
-0.817708
-0.821982
-0.827417
-0.834086
-0.84207
-0.85147
-0.862405
-0.875
-0.88939
-0.905739
-0.924223
-0.944994
-0.968158
-0.993796
-1.022
-1.05285
-1.0864
-1.12259
-1.16124
-1.20215
-1.24496
-0.959937
-0.957916
-0.955243
-0.952275
-0.949299
-0.946405
-0.943628
-0.940987
-0.938494
-0.936154
-0.93397
-0.931943
-0.930082
-0.928398
-0.92691
-0.925635
-0.924604
-0.923861
-0.92346
-0.923455
-0.923905
-0.924888
-0.926503
-0.928876
-0.932144
-0.936428
-0.94183
-0.948437
-0.956336
-0.965616
-0.976376
-0.988723
-1.00277
-1.01867
-1.03657
-1.05667
-1.0791
-1.10397
-1.13137
-1.16141
-1.1942
-1.22978
-1.2681
-1.309
-1.35231
-1.3977
-1.06343
-1.06147
-1.05898
-1.05625
-1.05358
-1.05103
-1.04864
-1.04641
-1.04437
-1.0425
-1.04082
-1.03932
-1.03803
-1.03695
-1.0361
-1.0355
-1.03519
-1.03521
-1.03562
-1.03646
-1.0378
-1.03971
-1.04228
-1.04565
-1.04995
-1.05531
-1.06184
-1.06962
-1.07875
-1.08933
-1.10147
-1.11525
-1.1308
-1.14825
-1.16779
-1.18958
-1.21375
-1.24042
-1.26969
-1.30171
-1.33658
-1.37433
-1.41492
-1.45825
-1.50414
-1.55221
-1.167
-1.16511
-1.1628
-1.16029
-1.1579
-1.15568
-1.15366
-1.15185
-1.15024
-1.14884
-1.14765
-1.14669
-1.14596
-1.14549
-1.14528
-1.14536
-1.14577
-1.14657
-1.14779
-1.14951
-1.15175
-1.1546
-1.15813
-1.1625
-1.16784
-1.17427
-1.18191
-1.19087
-1.20124
-1.21315
-1.22667
-1.2419
-1.25897
-1.27802
-1.29924
-1.32277
-1.34875
-1.37731
-1.40857
-1.44268
-1.47974
-1.51978
-1.5628
-1.60869
-1.65727
-1.70812
-1.27064
-1.2688
-1.26666
-1.26438
-1.26225
-1.26035
-1.25869
-1.25726
-1.25608
-1.25514
-1.25444
-1.254
-1.25383
-1.25395
-1.25438
-1.25514
-1.25628
-1.25785
-1.25991
-1.2625
-1.26566
-1.26945
-1.27396
-1.27933
-1.28571
-1.29321
-1.30197
-1.31211
-1.32373
-1.33695
-1.35185
-1.36855
-1.38715
-1.40783
-1.43076
-1.45607
-1.48392
-1.51443
-1.54777
-1.58406
-1.6234
-1.66584
-1.7114
-1.75995
-1.81127
-1.86494
-1.3743
-1.37253
-1.37055
-1.36848
-1.36661
-1.36502
-1.36369
-1.36264
-1.36187
-1.36136
-1.36114
-1.36121
-1.36159
-1.3623
-1.36336
-1.36479
-1.36665
-1.369
-1.37189
-1.37536
-1.37943
-1.38417
-1.38965
-1.39603
-1.40345
-1.41204
-1.42192
-1.43323
-1.4461
-1.46063
-1.47691
-1.49506
-1.51522
-1.53754
-1.56218
-1.58931
-1.61905
-1.65158
-1.68704
-1.72557
-1.76725
-1.81217
-1.86032
-1.91156
-1.96562
-2.02203
-1.47795
-1.47626
-1.47444
-1.47257
-1.47095
-1.46965
-1.46865
-1.46796
-1.46757
-1.46749
-1.46773
-1.46829
-1.4692
-1.47048
-1.47216
-1.47425
-1.47684
-1.47996
-1.48368
-1.48801
-1.49299
-1.49866
-1.50512
-1.51251
-1.52097
-1.53064
-1.54164
-1.55413
-1.56824
-1.58407
-1.60173
-1.62133
-1.64303
-1.66699
-1.69336
-1.7223
-1.75397
-1.78853
-1.82615
-1.86693
-1.91099
-1.95839
-2.00912
-2.06299
-2.11968
-2.17873
-1.58156
-1.57995
-1.57828
-1.57661
-1.57524
-1.57421
-1.57352
-1.57317
-1.57316
-1.57349
-1.57417
-1.57521
-1.57663
-1.57847
-1.58075
-1.5835
-1.58679
-1.59068
-1.5952
-1.60038
-1.60624
-1.61283
-1.62026
-1.62866
-1.63816
-1.64891
-1.66103
-1.67469
-1.69003
-1.70714
-1.72616
-1.7472
-1.77044
-1.79604
-1.82414
-1.8549
-1.88849
-1.92508
-1.96482
-2.00784
-2.05424
-2.10407
-2.15728
-2.21367
-2.27286
-2.33436
-1.68507
-1.68355
-1.68204
-1.68057
-1.67943
-1.67866
-1.67827
-1.67826
-1.6786
-1.67932
-1.68043
-1.68193
-1.68386
-1.68624
-1.6891
-1.69249
-1.69647
-1.7011
-1.7064
-1.71239
-1.7191
-1.7266
-1.73498
-1.74438
-1.75491
-1.76672
-1.77995
-1.79477
-1.81131
-1.8297
-1.85006
-1.87255
-1.89732
-1.92454
-1.95435
-1.9869
-2.02238
-2.06096
-2.10278
-2.14795
-2.19659
-2.24873
-2.30429
-2.36301
-2.4245
-2.48821
-1.78844
-1.78703
-1.78566
-1.78438
-1.78347
-1.78296
-1.78286
-1.78316
-1.78386
-1.78496
-1.78648
-1.78844
-1.79086
-1.79376
-1.79719
-1.8012
-1.80585
-1.81118
-1.81722
-1.82399
-1.83152
-1.83989
-1.8492
-1.85956
-1.87109
-1.88393
-1.89825
-1.91422
-1.93196
-1.9516
-1.97329
-1.99721
-2.0235
-2.05232
-2.0838
-2.11809
-2.1554
-2.19588
-2.23967
-2.28689
-2.33764
-2.39193
-2.44964
-2.51049
-2.57403
-2.63966
-1.89163
-1.89032
-1.8891
-1.88801
-1.88732
-1.88706
-1.88724
-1.88786
-1.8889
-1.89037
-1.8923
-1.89469
-1.89758
-1.901
-1.90498
-1.90958
-1.91487
-1.92088
-1.92762
-1.93512
-1.94343
-1.95263
-1.96282
-1.9741
-1.98659
-2.00043
-2.01582
-2.0329
-2.05182
-2.0727
-2.09572
-2.12104
-2.14881
-2.17917
-2.21225
-2.24822
-2.28725
-2.32952
-2.37516
-2.42427
-2.47696
-2.53322
-2.59288
-2.65562
-2.72095
-2.78817
-1.99458
-1.99339
-1.99231
-1.99141
-1.99094
-1.99093
-1.99138
-1.9923
-1.99367
-1.99551
-1.99783
-2.00065
-2.00399
-2.0079
-2.01242
-2.0176
-2.0235
-2.03014
-2.03753
-2.04572
-2.05476
-2.06474
-2.07576
-2.0879
-2.1013
-2.11611
-2.13253
-2.15071
-2.17078
-2.19288
-2.21719
-2.24387
-2.27307
-2.30489
-2.33948
-2.37701
-2.41766
-2.46158
-2.5089
-2.55975
-2.6142
-2.67221
-2.73359
-2.79797
-2.8648
-2.93328
-2.09727
-2.0962
-2.09526
-2.09455
-2.09428
-2.09452
-2.09524
-2.09645
-2.09815
-2.10034
-2.10303
-2.10625
-2.11004
-2.11442
-2.11946
-2.1252
-2.13167
-2.1389
-2.1469
-2.15572
-2.16544
-2.17615
-2.18793
-2.20087
-2.21513
-2.23088
-2.2483
-2.26754
-2.28872
-2.312
-2.33756
-2.36554
-2.39607
-2.42926
-2.46525
-2.50422
-2.54635
-2.59176
-2.6406
-2.69301
-2.74904
-2.8086
-2.87147
-2.93725
-3.0053
-3.07472
-2.19966
-2.19872
-2.19791
-2.19738
-2.19734
-2.1978
-2.19879
-2.20028
-2.20228
-2.20481
-2.20786
-2.21146
-2.21567
-2.22052
-2.22605
-2.23231
-2.23932
-2.24709
-2.25565
-2.26505
-2.27539
-2.28676
-2.29923
-2.31293
-2.32801
-2.34466
-2.36303
-2.38328
-2.40553
-2.42993
-2.45666
-2.48586
-2.51761
-2.55205
-2.58933
-2.62961
-2.67306
-2.7198
-2.77001
-2.82382
-2.88123
-2.94214
-3.00628
-3.07321
-3.14222
-3.21232
-2.30173
-2.30091
-2.30024
-2.2999
-2.30006
-2.30076
-2.30199
-2.30374
-2.30604
-2.30887
-2.31226
-2.31624
-2.32085
-2.32614
-2.33214
-2.33888
-2.34638
-2.35464
-2.3637
-2.37363
-2.38453
-2.3965
-2.40962
-2.42402
-2.43988
-2.45737
-2.47666
-2.49785
-2.52109
-2.54653
-2.57434
-2.60462
-2.63748
-2.67305
-2.71149
-2.75294
-2.79756
-2.84551
-2.89694
-2.95197
-3.01059
-3.07264
-3.13784
-3.2057
-3.27544
-3.346
-2.40344
-2.40277
-2.40223
-2.40207
-2.40243
-2.40334
-2.40479
-2.4068
-2.40936
-2.41249
-2.4162
-2.42053
-2.42553
-2.43122
-2.43765
-2.44484
-2.45277
-2.46147
-2.47098
-2.48139
-2.49281
-2.50532
-2.51904
-2.5341
-2.55069
-2.56897
-2.58909
-2.61114
-2.63528
-2.66166
-2.69042
-2.72167
-2.75551
-2.79209
-2.83155
-2.87404
-2.9197
-2.9687
-3.02121
-3.07731
-3.13694
-3.19993
-3.266
-3.3346
-3.4049
-3.47582
-2.50478
-2.50425
-2.50385
-2.50387
-2.50441
-2.50552
-2.50719
-2.50942
-2.51224
-2.51564
-2.51966
-2.52431
-2.52966
-2.53572
-2.54254
-2.55011
-2.55844
-2.56753
-2.57745
-2.58829
-2.60017
-2.61318
-2.62745
-2.64312
-2.66038
-2.67938
-2.70024
-2.72307
-2.74801
-2.7752
-2.80478
-2.83687
-2.87157
-2.90904
-2.9494
-2.99278
-3.03934
-3.08926
-3.1427
-3.19968
-3.26013
-3.32389
-3.39064
-3.45983
-3.53059
-3.60184
-2.60573
-2.60535
-2.60507