/*--------------------------------*- C++ -*----------------------------------*\
  =========                 |
  \\      /  F ield         | OpenFOAM: The Open Source CFD Toolbox
   \\    /   O peration     | Website:  https://openfoam.org
    \\  /    A nd           | Version:  7
     \\/     M anipulation  |
\*---------------------------------------------------------------------------*/
FoamFile
{
    version     2.0;
    format      ascii;
    class       volScalarField;
    location    "0.45";
    object      p_rgh;
}
// * * * * * * * * * * * * * * * * * * * * * * * * * * * * * * * * * * * * * //

dimensions      [1 -1 -2 0 0 0 0];

internalField   nonuniform List<scalar> 
9072
(
764.215
762.754
765.582
770.596
777.016
783.63
789.998
795.907
801.329
806.308
810.935
815.312
819.541
823.723
827.949
832.304
836.865
841.708
846.903
852.521
858.634
865.317
872.649
880.715
889.61
899.439
910.322
922.397
935.825
950.8
967.601
986.367
1007.36
1030.78
1056.87
1085.77
1117.35
1151.03
1185.59
1219
1249.19
1272.57
1286.69
1297.11
1313.77
1336.02
764.333
762.37
764.451
768.846
774.622
780.784
786.86
792.622
797.993
802.986
807.665
812.116
816.428
820.695
825.004
829.437
834.072
838.984
844.247
849.933
856.117
862.878
870.299
878.468
887.486
897.462
908.522
920.811
934.494
949.76
966.802
985.975
1007.43
1031.47
1058.32
1088.12
1120.81
1155.82
1191.87
1226.68
1257.62
1280.74
1292.35
1297.37
1305.82
1330.47
763.391
761.884
763.844
767.539
772.628
778.194
783.83
789.29
794.467
799.351
803.981
808.422
812.751
817.049
821.398
825.877
830.561
835.526
840.844
846.593
852.848
859.692
867.212
875.502
884.665
894.817
906.09
918.635
932.625
948.254
965.739
985.368
1007.38
1032.04
1059.56
1090.06
1123.43
1159.1
1195.77
1231.15
1262.26
1286.01
1295.11
1299.16
1300.55
1328.06
762.214
761.276
763.205
766.492
770.992
776.015
781.193
786.297
791.214
795.917
800.427
804.793
809.078
813.356
817.7
822.186
826.886
831.874
837.224
843.014
849.322
856.234
863.839
872.236
881.531
891.846
903.317
916.101
930.374
946.336
964.203
984.241
1006.71
1031.86
1059.87
1090.84
1124.59
1160.53
1197.37
1232.9
1264.05
1288.81
1294.26
1298.29
1295.55
1328.89
761.024
760.694
762.641
765.641
769.689
774.25
779.008
783.759
788.396
792.885
797.234
801.48
805.679
809.895
814.195
818.651
823.334
828.315
833.669
839.473
845.809
852.763
860.427
868.903
878.3
888.744
900.373
913.35
927.852
944.08
962.25
982.612
1005.42
1030.9
1059.23
1090.44
1124.33
1160.28
1197.07
1232.64
1264.06
1289.24
1297.13
1301.73
1299.07
1334.55
759.833
760.158
762.088
764.889
768.577
772.742
777.121
781.539
785.897
790.159
794.327
798.43
802.516
806.641
810.87
815.27
819.909
824.86
830.194
835.99
842.33
849.302
856.999
865.526
874.994
885.53
897.277
910.398
925.072
941.501
959.895
980.493
1003.53
1029.23
1057.71
1089
1122.86
1158.69
1195.32
1230.94
1262.9
1289.03
1305.62
1306.03
1308.24
1346.47
758.541
759.537
761.477
764.138
767.535
771.358
775.396
779.502
783.591
787.626
791.605
795.552
799.508
803.525
807.665
811.989
816.568
821.468
826.764
832.534
838.858
845.827
853.536
862.087
871.596
882.192
894.018
907.238
922.032
938.597
957.143
977.894
1001.07
1026.87
1055.39
1086.64
1120.36
1155.98
1192.44
1228.14
1260.81
1288.36
1308.62
1313.56
1319.68
1364.87
757.11
758.726
760.731
763.312
766.477
770.006
773.739
777.559
781.391
785.204
788.993
792.778
796.596
800.495
804.532
808.769
813.272
818.109
823.353
829.08
835.373
842.32
850.018
858.571
868.095
878.718
890.586
903.863
918.727
935.372
954
974.825
998.052
1023.85
1052.32
1083.43
1116.93
1152.3
1188.59
1224.42
1257.87
1287.08
1310.24
1327.06
1343.23
1386.01
755.55
757.693
759.81
762.36
765.341
768.619
772.082
775.64
779.234
782.834
786.436
790.059
793.734
797.507
801.434
805.574
809.992
814.755
819.934
825.606
831.853
838.763
846.432
854.965
864.477
875.099
886.976
900.269
915.156
931.825
950.473
971.3
994.498
1020.22
1048.55
1079.44
1112.67
1147.77
1183.89
1219.88
1254.13
1285.08
1311.29
1335.68
1360.67
1407.75
753.873
756.455
758.709
761.254
764.086
767.148
770.373
773.696
777.068
780.467
783.889
787.351
790.883
794.528
798.34
802.376
806.701
811.381
816.486
822.092
828.279
835.137
842.76
851.253
860.731
871.325
883.178
896.451
911.317
927.96
946.569
967.333
990.432
1016
1044.12
1074.74
1107.66
1142.45
1178.4
1214.54
1249.56
1282.2
1311.5
1340.47
1374.19
1429.53
752.082
755.039
757.433
759.976
762.682
765.558
768.574
771.684
774.855
778.066
781.317
784.622
788.011
791.527
795.221
799.149
803.375
807.965
812.986
818.516
824.634
831.426
838.987
847.422
856.845
867.385
879.186
892.404
907.209
923.778
942.295
962.938
985.876
1011.24
1039.08
1069.38
1101.94
1136.4
1172.17
1208.42
1244.12
1278.3
1310.53
1343.82
1386.04
1449.28
750.177
753.468
755.985
758.518
761.111
763.823
766.655
769.577
772.564
775.601
778.689
781.844
785.094
788.481
792.055
795.872
799.994
804.487
809.418
814.863
820.9
827.614
835.099
843.459
852.807
863.271
874.993
888.124
902.83
919.283
937.658
958.128
980.851
1005.95
1033.47
1063.4
1095.57
1129.67
1165.21
1201.5
1237.72
1273.17
1307.96
1344.95
1395.41
1466.06
748.159
751.749
754.363
756.87
759.357
761.925
764.596
767.352
770.173
773.05
775.986
778.996
782.111
785.37
788.823
792.527
796.541
800.932
805.766
811.117
817.064
823.688
831.084
839.353
848.608
858.976
870.593
883.609
898.181
914.477
932.667
952.917
975.377
1000.16
1027.33
1056.85
1088.59
1122.3
1157.55
1193.77
1230.32
1266.66
1303.35
1342.9
1401.23
1477.48
746.026
749.885
752.558
755.021
757.408
759.849
762.38
764.99
767.663
770.394
773.187
776.061
779.044
782.178
785.511
789.099
793.003
797.286
802.017
807.267
813.113
819.638
826.932
835.096
844.241
854.493
865.983
878.855
893.261
909.363
927.328
947.316
969.474
993.909
1020.68
1049.76
1081.04
1114.32
1149.21
1185.25
1221.87
1258.63
1296.31
1336.67
1402.35
1479.79
743.781
747.88
750.562
752.956
755.248
757.582
759.997
762.482
765.026
767.624
770.285
773.029
775.886
778.897
782.111
785.583
789.372
793.543
798.164
803.305
809.042
815.456
822.636
830.682
839.702
849.819
861.16
873.863
888.073
903.948
921.65
941.339
963.158
987.209
1013.54
1042.15
1072.95
1105.75
1140.23
1175.94
1212.35
1248.97
1286.35
1325.1
1396.08
1464.9
741.43
745.735
748.367
750.655
752.864
755.122
757.454
759.843
762.279
764.76
767.301
769.922
772.657
775.548
778.643
781.996
785.667
789.72
794.223
799.246
804.864
811.156
818.21
826.122
835.001
844.964
856.135
868.644
882.629
898.241
915.644
934.997
956.44
980.072
1005.94
1034.04
1064.3
1096.57
1130.56
1165.79
1201.66
1237.45
1272.86
1307.01
1371.01
1424.63
1129.07
1129.1
1129.17
1129.27
1129.4
1129.57
1129.76
1129.98
1130.22
1130.48
1130.76
1131.05
1131.36
1131.68
1132.01
1132.34
1132.68
1133.02
1133.36
1133.69
1134.02
1134.34
1134.64
1134.94
1135.21
1135.48
1135.73
1135.97
1136.19
1136.41
1136.61
1136.79
1136.96
1137.1
1137.23
1137.32
1137.39
1137.42
1129.06
1129.1
1129.17
1129.27
1129.4
1129.56
1129.76
1129.97
1130.21
1130.47
1130.75
1131.04
1131.35
1131.67
1132
1132.33
1132.67
1133.01
1133.35
1133.68
1134.01
1134.33
1134.63
1134.93
1135.21
1135.47
1135.73
1135.97
1136.2
1136.41
1136.61
1136.8
1136.97
1137.11
1137.24
1137.33
1137.4
1137.43
1129.05
1129.08
1129.15
1129.26
1129.39
1129.55
1129.75
1129.97
1130.21
1130.47
1130.74
1131.03
1131.34
1131.66
1131.98
1132.32
1132.66
1133
1133.34
1133.67
1134
1134.32
1134.62
1134.92
1135.2
1135.47
1135.73
1135.97
1136.2
1136.42
1136.62
1136.81
1136.97
1137.12
1137.25
1137.34
1137.41
1137.45
1129.03
1129.06
1129.13
1129.24
1129.37
1129.54
1129.74
1129.95
1130.2
1130.45
1130.73
1131.02
1131.33
1131.64
1131.97
1132.3
1132.64
1132.99
1133.32
1133.66
1133.99
1134.31
1134.62
1134.92
1135.2
1135.47
1135.73
1135.98
1136.21
1136.43
1136.63
1136.82
1136.99
1137.13
1137.26
1137.36
1137.42
1137.46
1129
1129.03
1129.11
1129.21
1129.35
1129.52
1129.72
1129.94
1130.18
1130.44
1130.72
1131.01
1131.31
1131.63
1131.96
1132.29
1132.63
1132.97
1133.31
1133.65
1133.98
1134.3
1134.62
1134.92
1135.2
1135.48
1135.74
1135.98
1136.22
1136.44
1136.64
1136.83
1137
1137.15
1137.27
1137.37
1137.44
1137.48
1128.96
1129
1129.07
1129.18
1129.32
1129.49
1129.7
1129.92
1130.16
1130.42
1130.7
1130.99
1131.3
1131.61
1131.94
1132.28
1132.62
1132.97
1133.31
1133.65
1133.98
1134.3
1134.62
1134.92
1135.21
1135.48
1135.75
1135.99
1136.23
1136.45
1136.66
1136.85
1137.02
1137.17
1137.29
1137.39
1137.46
1137.51
1128.91
1128.95
1129.03
1129.14
1129.29
1129.46
1129.67
1129.9
1130.14
1130.41
1130.68
1130.97
1131.28
1131.6
1131.93
1132.27
1132.61
1132.96
1133.3
1133.64
1133.98
1134.3
1134.62
1134.92
1135.21
1135.49
1135.76
1136.01
1136.24
1136.47
1136.67
1136.86
1137.04
1137.19
1137.31
1137.41
1137.49
1137.54
1128.86
1128.89
1128.98
1129.1
1129.25
1129.43
1129.64
1129.87
1130.12
1130.38
1130.66
1130.95
1131.26
1131.58
1131.91
1132.25
1132.6
1132.95
1133.3
1133.64
1133.98
1134.31
1134.62
1134.93
1135.22
1135.5
1135.77
1136.02
1136.26
1136.48
1136.69
1136.88
1137.06
1137.21
1137.34
1137.44
1137.52
1137.57
1128.78
1128.83
1128.92
1129.05
1129.2
1129.39
1129.61
1129.85
1130.1
1130.36
1130.64
1130.93
1131.24
1131.56
1131.89
1132.24
1132.59
1132.94
1133.29
1133.64
1133.98
1134.31
1134.63
1134.94
1135.24
1135.52
1135.79
1136.04
1136.28
1136.5
1136.71
1136.9
1137.08
1137.23
1137.36
1137.47
1137.55
1137.6
1128.7
1128.76
1128.86
1128.99
1129.15
1129.34
1129.57
1129.82
1130.07
1130.34
1130.62
1130.91
1131.21
1131.53
1131.87
1132.22
1132.58
1132.94
1133.29
1133.64
1133.98
1134.32
1134.64
1134.95
1135.25
1135.54
1135.81
1136.06
1136.3
1136.53
1136.73
1136.93
1137.1
1137.26
1137.39
1137.5
1137.58
1137.64
1128.6
1128.67
1128.79
1128.93
1129.09
1129.29
1129.53
1129.79
1130.04
1130.31
1130.59
1130.88
1131.19
1131.51
1131.85
1132.2
1132.57
1132.93
1133.28
1133.64
1133.98
1134.32
1134.65
1134.97
1135.27
1135.56
1135.83
1136.09
1136.33
1136.55
1136.76
1136.95
1137.13
1137.28
1137.41
1137.53
1137.62
1137.69
1128.47
1128.58
1128.72
1128.86
1129.03
1129.23
1129.49
1129.76
1130.02
1130.28
1130.56
1130.86
1131.16
1131.48
1131.82
1132.18
1132.56
1132.92
1133.28
1133.64
1133.99
1134.33
1134.66
1134.98
1135.29
1135.58
1135.85
1136.11
1136.35
1136.58
1136.78
1136.98
1137.15
1137.31
1137.44
1137.56
1137.66
1137.73
1128.32
1128.48
1128.64
1128.79
1128.96
1129.17
1129.44
1129.73
1129.99
1130.26
1130.54
1130.83
1131.13
1131.45
1131.8
1132.16
1132.54
1132.92
1133.28
1133.63
1133.99
1134.34
1134.68
1135
1135.31
1135.6
1135.88
1136.14
1136.38
1136.6
1136.81
1137
1137.18
1137.33
1137.47
1137.59
1137.7
1137.78
1128.13
1128.37
1128.57
1128.73
1128.89
1129.11
1129.4
1129.7
1129.96
1130.23
1130.51
1130.8
1131.1
1131.42
1131.76
1132.14
1132.53
1132.91
1133.27
1133.63
1134
1134.35
1134.69
1135.02
1135.33
1135.63
1135.91
1136.17
1136.41
1136.64
1136.84
1137.03
1137.2
1137.36
1137.5
1137.62
1137.74
1137.83
1127.87
1128.26
1128.52
1128.67
1128.82
1129.04
1129.36
1129.68
1129.94
1130.2
1130.48
1130.77
1131.07
1131.38
1131.73
1132.12
1132.52
1132.91
1133.27
1133.63
1134
1134.36
1134.71
1135.04
1135.36
1135.66
1135.94
1136.2
1136.44
1136.67
1136.87
1137.06
1137.23
1137.38
1137.52
1137.65
1137.78
1137.88
1127.68
1128.18
1128.5
1128.63
1128.77
1128.98
1129.33
1129.69
1129.94
1130.18
1130.47
1130.76
1131.05
1131.36
1131.71
1132.09
1132.51
1132.9
1133.27
1133.63
1134.01
1134.37
1134.72
1135.06
1135.38
1135.69
1135.97
1136.24
1136.48
1136.7
1136.9
1137.09
1137.25
1137.41
1137.55
1137.68
1137.81
1137.93
737.597
742.076
744.597
746.686
748.782
750.977
753.241
755.532
757.837
760.166
762.537
764.98
767.532
770.238
773.146
776.309
779.787
783.645
787.951
792.775
798.189
804.271
811.104
818.783
827.411
837.103
847.973
860.138
873.722
888.87
905.744
924.511
945.31
968.227
993.299
1020.53
1049.87
1081.22
1114.3
1148.58
1183.23
1216.92
1247.48
1270.45
1281.61
1225.6
732.032
736.099
738.398
740.125
742.013
744.16
746.409
748.646
750.847
753.031
755.226
757.471
759.811
762.296
764.975
767.897
771.124
774.724
778.767
783.322
788.459
794.246
800.762
808.093
816.341
825.615
836.016
847.638
860.58
874.973
890.998
908.843
928.657
950.505
974.394
1000.32
1028.31
1058.37
1090.28
1123.48
1157.2
1190.22
1220.56
1244.69
1260.75
1294.64
726.564
728.998
730.562
731.535
733.231
735.571
737.984
740.238
742.351
744.392
746.416
748.467
750.603
752.885
755.363
758.074
761.073
764.437
768.243
772.561
777.454
782.982
789.207
796.21
804.092
812.963
822.909
833.983
846.236
859.786
874.856
891.702
910.489
931.216
953.836
978.324
1004.79
1033.49
1064.34
1096.74
1130.1
1163.73
1196.69
1228.3
1260.2
1308.09
660.256
602.083
602.409
619.281
649.883
680.148
701.449
715.069
724.322
731.049
736.057
739.842
742.834
745.384
747.677
749.922
752.412
755.243
758.503
762.264
766.593
771.538
777.148
783.502
790.727
798.973
808.329
818.769
830.231
842.781
856.757
872.588
890.507
910.167
931.532
954.448
979.139
1006.38
1036.26
1067.85
1100.69
1134.4
1168.21
1201.63
1235
1272.79
122.382
83.1721
82.9474
96.9257
130.59
176.642
222.045
261.489
296.647
329.426
360.07
388.239
414.193
438.628
462.116
483.099
501.056
519.663
539.466
560.851
584.056
609.012
635.424
663.272
693.1
725.189
757.933
787.474
810.251
825.414
837.385
851.377
868.248
886.656
906.69
927.717
950.095
975.932
1005.5
1036.48
1068.61
1102.02
1135.54
1168.52
1201.28
1235.94
2.02766
2.25129
2.2493
2.19864
2.19509
2.1946
2.1869
2.17773
2.17142
2.16936
2.1713
2.17663
2.18372
2.18493
2.15783
4.19213
10.0729
16.8191
24.7655
34.375
46.1703
60.6655
78.3724
100.193
128.339
167.143
222.063
295.864
386.994
494.566
606.692
717.211
809.751
862.584
882.415
898.911
915.728
939.154
969.989
1001.06
1032.78
1066.61
1099.92
1132.02
1164.14
1197.38
2.15017
2.15496
2.18479
2.2094
2.23487
2.25635
2.27368
2.28859
2.30239
2.31579
2.32929
2.34336
2.35831
2.37379
2.38824
2.39558
2.38522
2.36938
2.35827
2.35504
2.35975
2.37122
2.38777
2.40765
2.42926
2.45107
2.47153
2.491
2.51065
2.53533
19.0571
68.219
183.033
409.032
655.828
842.429
891.387
904.539
933.423
960.864
990.49
1026.63
1060.69
1091.57
1123
1155.52
2.13419
2.15834
2.17371
2.18862
2.20222
2.21519
2.2271
2.2381
2.24878
2.25961
2.27093
2.283
2.29612
2.31095
2.32939
2.35491
2.38238
2.40386
2.42143
2.43729
2.45266
2.46821
2.48438
2.50161
2.52044
2.5418
2.56739
2.6015
2.65472
2.73511
2.7421
2.56372
2.41873
2.39939
17.9612
60.0527
115.805
360.161
848.904
941.393
954.833
988.011
1019.06
1045.55
1076.41
1110.67
2.14021
2.14789
2.15926
2.1714
2.1832
2.19479
2.20584
2.21634
2.22659
2.2369
2.24753
2.25868
2.2706
2.28375
2.29904
2.31731
2.3362
2.35323
2.36885
2.38407
2.39962
2.41598
2.43345
2.45223
2.4726
2.49497
2.52004
2.54921
2.58529
2.63029
2.66736
2.69915
2.77627
2.89802
2.85115
2.42454
1.94245
9.11122
70.5551
133.462
365.164
876.891
1003.45
1011.51
1034.36
1067.06
2.12379
2.132
2.14236
2.15391
2.16526
2.1764
2.18726
2.19784
2.20827
2.21877
2.2295
2.24064
2.25234
2.26487
2.27851
2.29334
2.30856
2.32344
2.33806
2.35286
2.36826
2.38458
2.40203
2.42075
2.44093
2.46277
2.48655
2.51258
2.54106
2.57101
2.59409
2.60076
2.6039
2.64833
2.71388
2.76327
2.86118
2.83591
2.40072
1.62923
8.35003
93.2137
194.991
306.276
598.065
982.785
2.10548
2.1137
2.12373
2.13476
2.1455
2.15603
2.16642
2.17671
2.18698
2.19738
2.20803
2.21908
2.23064
2.24285
2.25582
2.26949
2.28354
2.29769
2.31196
2.32659
2.34182
2.35786
2.37487
2.39298
2.41229
2.43291
2.45492
2.47828
2.50264
2.52662
2.54619
2.56003
2.57841
2.5957
2.60622
2.59202
2.59618
2.67472
2.7491
2.81603
2.77689
2.36989
1.65567
1.3932
17.1813
66.2631
2.08452
2.09328
2.10309
2.11353
2.12364
2.13352
2.14334
2.15316
2.16306
2.17315
2.18351
2.19425
2.20545
2.2172
2.22952
2.24239
2.25564
2.26916
2.283
2.29727
2.31213
2.3277
2.34409
2.36136
2.37957
2.39873
2.41879
2.43956
2.46054
2.48069
2.49808
2.51244
2.5268
2.53897
2.54243
2.53242
2.52642
2.53547
2.51749
2.48942
2.55488
2.61486
2.65061
2.7676
2.63607
2.14006
2.06163
2.0707
2.08016
2.09
2.09951
2.1088
2.11808
2.12743
2.13691
2.1466
2.15658
2.16692
2.17766
2.18887
2.20056
2.2127
2.22524
2.23815
2.25145
2.26521
2.27953
2.29446
2.31005
2.32634
2.34332
2.36093
2.37906
2.39743
2.41557
2.43269
2.44777
2.4604
2.47126
2.4797
2.48262
2.47852
2.47262
2.46468
2.4413
2.41333
2.40788
2.37164
2.28038
2.25304
2.33178
2.31076
2.03692
2.04599
2.05489
2.06409
2.07302
2.08179
2.09059
2.0995
2.10857
2.11786
2.12744
2.13734
2.14761
2.15828
2.16938
2.1809
2.19282
2.20513
2.21785
2.23101
2.24466
2.25882
2.2735
2.2887
2.30438
2.32045
2.33674
2.35296
2.36868
2.3833
2.39614
2.40679
2.41517
2.42076
2.42216
2.41867
2.4121
2.40194
2.384
2.36133
2.33912
2.30261
2.25474
2.22851
2.20888
2.14205
2.01036
2.01912
2.02732
2.03584
2.04423
2.05255
2.06092
2.06943
2.07811
2.08702
2.09618
2.10565
2.11546
2.12563
2.1362
2.14715
2.15849
2.1702
2.1823
2.19479
2.20769
2.221
2.2347
2.24876
2.26313
2.27768
2.29222
2.30649
2.32008
2.33255
2.34337
2.35214
2.35855
2.36208
2.36195
2.35776
2.35006
2.33867
2.32199
2.30082
2.27668
2.24546
2.20941
2.17844
2.14659
2.09822
1.98195
1.99011
1.99757
2.00544
2.01333
2.02123
2.02923
2.03738
2.04571
2.05424
2.06301
2.07206
2.08142
2.09112
2.10118
2.1116
2.12237
2.13348
2.14493
2.1567
2.1688
2.1812
2.19388
2.20678
2.21984
2.23291
2.2458
2.25825
2.26993
2.28047
2.28946
2.29651
2.30125
2.30321
2.30188
2.29694
2.28846
2.27624
2.25959
2.23879
2.21449
2.18534
2.15237
2.11972
2.08592
2.04566
1.9517
1.95907
1.96585
1.97311
1.98055
1.98808
1.99575
2.00357
2.01156
2.01974
2.02813
2.03678
2.04571
2.05495
2.06452
2.07442
2.08463
2.09512
2.10589
2.11691
2.12816
2.13963
2.15127
2.16302
2.17478
2.18641
2.19772
2.20847
2.2184
2.2272
2.23453
2.24002
2.24331
2.24399
2.24167
2.23607
2.22706
2.21445
2.1979
2.17751
2.15355
2.12572
2.09477
2.06268
2.02935
1.99346
1.91968
1.9262
1.93238
1.93913
1.94615
1.95335
1.96071
1.96822
1.97589
1.98372
1.99175
2
2.00851
2.01731
2.0264
2.03577
2.0454
2.05526
2.06532
2.07556
2.08596
2.09648
2.10708
2.11768
2.12817
2.13841
2.14822
2.1574
2.16572
2.17294
2.17875
2.18283
2.18482
2.18439
2.18119
2.17497
2.16553
2.15269
2.13627
2.11631
2.09298
2.06636
2.03702
2.00607
1.97379
1.94029
1.88606
1.89173
1.89743
1.90374
1.9104
1.91728
1.92434
1.93156
1.93891
1.94641
1.95407
1.96193
1.97002
1.97836
1.98695
1.99578
2.00482
2.01402
2.02336
2.03281
2.04234
2.05192
2.06149
2.07096
2.08021
2.08911
2.0975
2.10522
2.11207
2.11785
2.12227
2.12505
2.12587
2.12442
2.12039
2.11354
2.10365
2.09057
2.0742
2.05459
2.03185
2.00617
1.97802
1.94814
1.91696
1.88502
1.85103
1.85594
1.86125
1.86718
1.87351
1.8801
1.88687
1.89378
1.90082
1.90797
1.91527
1.92272
1.93038
1.93824
1.94632
1.95459
1.96301
1.97153
1.98014
1.98878
1.99745
2.00609
2.01464
2.02301
2.03107
2.0387
2.04577
2.05214
2.05764
2.06207
2.06521
2.06677
2.06648
2.06405
2.05919
2.05166
2.04126
2.02786
2.01143
1.99199
1.96966
1.94462
1.91727
1.88821
1.85788
1.82689
1.8148
1.81907
1.82406
1.82967
1.8357
1.84199
1.84846
1.85507
1.86178
1.86858
1.87548
1.88252
1.88971
1.89707
1.90461
1.91229
1.92007
1.9279
1.93576
1.9436
1.95141
1.95914
1.9667
1.974
1.98093
1.98736
1.9932
1.9983
2.00254
2.00571
2.00762
2.00801
2.00663
2.00321
1.99749
1.98921
1.97821
1.9644
1.94775
1.92831
1.90615
1.88145
1.85457
1.82601
1.79616
1.7656
1.77759
1.78134
1.78605
1.79137
1.79711
1.80311
1.80928
1.81556
1.82193
1.82835
1.83485
1.84144
1.84814
1.85498
1.86194
1.869
1.87612
1.88326
1.89036
1.89742
1.90438
1.91121
1.91781
1.92409
1.92993
1.93524
1.93992
1.94384
1.94686
1.94882
1.94953
1.94876
1.94629
1.94185
1.93519
1.92608
1.9144
1.90006
1.88306
1.86341
1.84118
1.81654
1.7898
1.76139
1.73164
1.70107
1.73959
1.74293
1.74738
1.75243
1.75788
1.76358
1.76943
1.77538
1.78137
1.7874
1.79347
1.79958
1.80577
1.81205
1.81843
1.82486
1.83131
1.83774
1.8441
1.85038
1.85652
1.86247
1.86814
1.87343
1.87824
1.88248
1.88605
1.88881
1.89065
1.8914
1.89091
1.88898
1.88538
1.87988
1.87221
1.86221
1.84975
1.83478
1.81726
1.79721
1.77467
1.74981
1.72289
1.69426
1.66419
1.63315
1.70094
1.70396
1.70817
1.71296
1.71812
1.72351
1.72902
1.73461
1.74021
1.74582
1.75143
1.75705
1.76271
1.76842
1.77419
1.77999
1.78577
1.7915
1.79713
1.80263
1.80796
1.81305
1.81781
1.82215
1.82596
1.82917
1.83164
1.83327
1.83391
1.83346
1.83176
1.82864
1.82389
1.81726
1.80854
1.79756
1.78424
1.76851
1.75032
1.72967
1.70659
1.68124
1.65382
1.6246
1.5938
1.56188
1.66177
1.66454
1.66851
1.67304
1.67791
1.68297
1.68813
1.69333
1.69852
1.70368
1.70882
1.71393
1.71905
1.7242
1.72936
1.73452
1.73963
1.74467
1.74958
1.75432
1.75884
1.76308
1.76695
1.77034
1.77318
1.77535
1.77674
1.77721
1.77665
1.77497
1.77205
1.76772
1.76177
1.75397
1.74413
1.73213
1.71785
1.70124
1.68221
1.66075
1.63692
1.6108
1.58255
1.55239
1.52053
1.48744
1.62218
1.62475
1.62849
1.63275
1.63732
1.64203
1.64682
1.65161
1.65637
1.66108
1.66573
1.67033
1.67491
1.67949
1.68405
1.68857
1.69303
1.69737
1.70156
1.70554
1.70926
1.71265
1.71562
1.71809
1.71994
1.72107
1.72135
1.72065
1.71888
1.71596
1.71179
1.70621
1.69902
1.69001
1.67901
1.66591
1.65058
1.63294
1.61291
1.59046
1.56563
1.53848
1.50909
1.47767
1.44443
1.40979
1.58224
1.58465
1.58816
1.59216
1.59641
1.60077
1.60516
1.60953
1.61385
1.61809
1.62225
1.62634
1.63039
1.63439
1.63835
1.64224
1.64604
1.64969
1.65315
1.65637
1.65928
1.66182
1.6639
1.66542
1.66628
1.66635
1.66549
1.66361
1.66061
1.65644
1.65101
1.64414
1.63567
1.62539
1.61318
1.59889
1.5824
1.56359
1.54239
1.51876
1.49273
1.46428
1.4335
1.40057
1.36571
1.32937
1.54201
1.5443
1.54759
1.55133
1.55525
1.55924
1.56323
1.56717
1.57103
1.5748
1.57847
1.58205
1.58556
1.589
1.59236
1.59561
1.59873
1.60168
1.6044
1.60684
1.60894
1.61062
1.61179
1.61236
1.6122
1.61119
1.6092
1.60612
1.6019
1.59648
1.58974
1.58156
1.57175
1.56017
1.54666
1.53109
1.5133
1.49318
1.47064
1.44567
1.41821
1.38825
1.35584
1.32118
1.28451
1.2462
1.50156
1.50374
1.50682
1.51029
1.51389
1.51752
1.5211
1.5246
1.52801
1.5313
1.53447
1.53754
1.54051
1.54338
1.54612
1.54873
1.55117
1.5534
1.55536
1.55701
1.55828
1.55908
1.55934
1.55894
1.55775
1.55565
1.55251
1.54826
1.54281
1.53611
1.52806
1.51851
1.50733
1.49438
1.47949
1.46252
1.44331
1.42173
1.39772
1.37121
1.34214
1.31047
1.27625
1.23968
1.20097
1.16049
1.46093
1.46302
1.46589
1.46911
1.47239
1.47565
1.47882
1.48189
1.48484
1.48765
1.49034
1.49289
1.49531
1.49759
1.49971
1.50166
1.5034
1.50489
1.50608
1.50692
1.50734
1.50726
1.50659
1.50521
1.50298
1.49978
1.49551
1.49007
1.4834
1.47542
1.46602
1.45508
1.44249
1.4281
1.41175
1.39327
1.3725
1.34933
1.32369
1.29549
1.26464
1.23108
1.1949
1.15625
1.11534
1.07252
1.42015
1.42217
1.42484
1.42781
1.43079
1.43368
1.43646
1.4391
1.44159
1.44393
1.44612
1.44814
1.45
1.45169
1.45318
1.45445
1.45548
1.45623
1.45663
1.45663
1.45618
1.4552
1.45358
1.45121
1.44794
1.44366
1.43826
1.43165
1.42375
1.41447
1.40371
1.39136
1.37731
1.36142
1.34351
1.32342
1.30099
1.27612
1.24872
1.21868
1.18589
1.1503
1.11199
1.07108
1.02777
0.98239
1.37926
1.38121
1.3837
1.38643
1.38911
1.39166
1.39405
1.39627
1.39832
1.40018
1.40187
1.40336
1.40466
1.40574
1.40658
1.40718
1.40749
1.40747
1.40707
1.40622
1.40488
1.40298
1.4004
1.39704
1.39273
1.38737
1.38085
1.37307
1.36394
1.35335
1.34121
1.32743
1.31188
1.29443
1.2749
1.25311
1.22893
1.20227
1.17299
1.14097
1.1061
1.06835
1.02776
0.98443
0.938545
0.890474
1.33828
1.34017
1.34248
1.34499
1.34738
1.3496
1.35162
1.35343
1.35504
1.35644
1.35763
1.35859
1.35932
1.3598
1.36
1.35992
1.35951
1.35872
1.35749
1.35578
1.35353
1.35069
1.34715
1.34278
1.33744
1.33101
1.32337
1.31441
1.30404
1.29214
1.27862
1.26338
1.24631
1.22726
1.20605
1.18251
1.15653
1.12797
1.09671
1.0626
1.02554
0.9855
0.942482
0.896586
0.848013
0.797164
1.29724
1.29907
1.30122
1.3035
1.30563
1.30753
1.30919
1.31061
1.3118
1.31274
1.31344
1.31388
1.31405
1.31392
1.3135
1.31273
1.3116
1.31003
1.30797
1.30538
1.30222
1.29843
1.29392
1.28855
1.28217
1.27466
1.2659
1.25577
1.24415
1.23093
1.21603
1.19933
1.18073
1.16004
1.13712
1.11181
1.08396
1.05344
1.02011
0.983819
0.944482
0.902037
0.856483
0.807924
0.756603
0.702939
1.25618
1.25794
1.25992
1.262
1.26386
1.26546
1.26678
1.26783
1.26861
1.26911
1.26933
1.26926
1.26888
1.26818
1.26712
1.26569
1.26382
1.26147
1.25858
1.25512
1.25104
1.24631
1.24082
1.23444
1.22702
1.21844
1.20856
1.19724
1.18438
1.16985
1.15356
1.13541
1.11526
1.09294
1.06829
1.04117
1.01142
0.978895
0.943434
0.904908
0.863221
0.818304
0.770156
0.718913
0.664859
0.608445
1.21512
1.21681
1.21864
1.2205
1.22212
1.22343
1.22443
1.22512
1.2255
1.22558
1.22535
1.22478
1.22387
1.22259
1.22092
1.21882
1.21624
1.21311
1.20939
1.20506
1.20008
1.19442
1.18795
1.18056
1.1721
1.16244
1.15143
1.13894
1.12483
1.109
1.09135
1.07174
1.05004
1.02608
0.999711
0.970769
0.939101
0.904538
0.866926
0.826142
0.782084
0.734681
0.683955
0.630083
0.573388
0.514341
1.17411
1.17572
1.17739
1.17906
1.18043
1.18146
1.18215
1.1825
1.18251
1.18218
1.1815
1.18046
1.17904
1.1772
1.17492
1.17217
1.16888
1.16499
1.16047
1.15529
1.14943
1.14284
1.13541
1.12701
1.11751
1.10676
1.09464
1.08098
1.06564
1.04853
1.02951
1.00847
0.985225
0.95963
0.931531
0.900772
0.867183
0.830591
0.790846
0.747829
0.701434
0.651603
0.598387
0.542003
0.482811
0.421308
1.1332
1.13471
1.13623
1.1377
1.13884
1.1396
1.13999
1.14001
1.13966
1.13894
1.13784
1.13634
1.13441
1.13203
1.12917
1.12578
1.1218
1.11717
1.11186
1.10588
1.09917
1.09167
1.08329
1.07389
1.06335
1.05155
1.03832
1.0235
1.00695
0.988565
0.968206
0.945722
0.920946
0.893726
0.863917
0.831363
0.795885
0.757308
0.715491
0.670314
0.621675
0.569533
0.513976
0.455254
0.393764
0.330054
1.09242
1.09384
1.0952
1.09648
1.09739
1.0979
1.098
1.0977
1.097
1.0959
1.09438
1.09243
1.09001
1.0871
1.08368
1.07967
1.07502
1.06968
1.06364
1.05688
1.04935
1.04098
1.03167
1.0213
1.00977
0.99693
0.98261
0.966649
0.948909
0.929264
0.90757
0.883658
0.857363
0.828546
0.797069
0.76277
0.725466
0.684986
0.641194
0.593973
0.543226
0.488934
0.431221
0.370372
0.30683
0.241209
1.05183
1.05314
1.05436
1.05545
1.05614
1.0564
1.05622
1.05561
1.05456
1.05309
1.05116
1.04877
1.04588
1.04246
1.03848
1.03388
1.02859
1.02258
1.01584
1.00834
1.00004
0.990834
0.980643
0.969363
0.956875
0.943027
0.927644
0.910562
0.891645
0.870759
0.847744
0.822425
0.794649
0.764288
0.731211
0.695246
0.656209
0.613938
0.568304
0.519187
0.466497
0.410242
0.350584
0.287844
0.222516
0.155295
1.01148
1.01267
1.01375
1.01465
1.01512
1.01513
1.01468
1.01376
1.01238
1.01055
1.00823
1.00541
1.00207
0.998158
0.99364
0.988457
0.982559
0.975919
0.968524
0.96034
0.951299
0.941315
0.9303
0.918158
0.904762
0.889945
0.873526
0.85535
0.835282
0.813179
0.788871
0.762186
0.732989
0.701166
0.666578
0.629048
0.588398
0.544478
0.497158
0.446311
0.391859
0.333844
0.272467
0.208085
0.141258
0.0727758
0.971384
0.972457
0.9734
0.974111
0.974372
0.97414
0.973414
0.972203
0.970506
0.968318
0.965625
0.962404
0.958619
0.954232
0.949196
0.943461
0.936986
0.929756
0.921754
0.912933
0.903213
0.892507
0.88073
0.867784
0.853526
0.837776
0.820356
0.80112
0.779938
0.756656
0.7311
0.703115
0.672583
0.639396
0.603405
0.564431
0.522309
0.476897
0.428054
0.375648
0.319619
0.260051
0.197181
0.131406
0.06336
-0.00606765
0.931592
0.932538
0.933344
0.933869
0.933918
0.933449
0.932465
0.930971
0.928969
0.926448
0.923398
0.919789
0.915582
0.910734
0.905202
0.898944
0.891934
0.884162
0.875606
0.866202
0.855862
0.844496
0.832019
0.818321
0.803242
0.786598
0.768219
0.747972
0.725725
0.701321
0.67459
0.645398
0.613641
0.579203
0.541927
0.501643
0.458198
0.41145
0.36124
0.307438
0.25002
0.189109
0.124969
0.0580393
-0.0109664
-0.0810661
0.892125
0.892938
0.893608
0.893948
0.89379
0.893095
0.891866
0.890106
0.887815
0.884981
0.88159
0.877611
0.873
0.867714
0.861714
0.854971
0.847472
0.839211
0.830153
0.820221
0.809319
0.797352
0.78423
0.769827
0.75397
0.736476
0.717194
0.696
0.672761
0.647317
0.619512
0.589229
0.556367
0.520799
0.482364
0.440908
0.396287
0.348345
0.296912
0.241877
0.183259
0.121209
0.0560122
-0.0118507
-0.081588
-0.152149
0.853007
0.85368
0.854215
0.854374
0.854019
0.853111
0.851653
0.849647
0.847085
0.843956
0.840243
0.835913
0.83092
0.825225
0.818794
0.811611
0.803673
0.794974
0.785465
0.775056
0.763642
0.751129
0.737412
0.722349
0.705761
0.687476
0.667362
0.645303
0.621164
0.594785
0.566027
0.53478
0.500937
0.464359
0.424896
0.382407
0.336749
0.287747
0.235234
0.179136
0.119507
0.0565135
-0.00954816
-0.0781517
-0.148451
-0.219368
0.814261
0.814791
0.815192
0.815176
0.814634
0.813529
0.811859
0.809624
0.806809
0.803402
0.799388
0.794732
0.789389
0.783322
0.776505
0.768931
0.760605
0.751514
0.741596
0.730753
0.718876
0.705863
0.691598
0.675925
0.658664
0.639662
0.618803
0.595975
0.57104
0.543846
0.514261
0.482176
0.447472
0.410009
0.36965
0.326269
0.279709
0.229785
0.176349
0.119367
0.058916
-0.00484314
-0.0715982
-0.140787
-0.211545
-0.282799
0.775913
0.776295
0.776569
0.776384
0.775665
0.774376
0.772511
0.770061
0.76701
0.763346
0.759054
0.754102
0.748448
0.742053
0.7349
0.726987
0.718321
0.708878
0.69859
0.687351
0.675052
0.661584
0.64682
0.630592
0.61273
0.593098
0.571591
0.5481
0.522483
0.494594
0.464306
0.431502
0.396055
0.357833
0.316718
0.272585
0.225265
0.174572
0.12039
0.0627137
0.00161663
-0.062747
-0.130049
-0.199714
-0.270895
-0.342538
0.737986
0.738222
0.738371
0.738025
0.73714
0.735678
0.733631
0.730981
0.727711
0.723812
0.719273
0.714062
0.708138
0.701464
0.694024
0.685822
0.676858
0.667104
0.65648
0.644882
0.632201
0.618324
0.603113
0.586398
0.568019
0.547855
0.525808
0.501763
0.475577
0.447107
0.416227
0.382816
0.346746
0.3079
0.266176
0.221443
0.17352
0.122233
0.0674935
0.00930479
-0.0522763
-0.117101
-0.18483
-0.254903
-0.326519
-0.39865
0.700502
0.700594
0.700622
0.700123
0.699081
0.697456
0.695238
0.692404
0.688937
0.684829
0.680074
0.674644
0.668494
0.661587
0.653908
0.645462
0.636243
0.626213
0.615291
0.603373
0.590354
0.57612
0.560524
0.543399
0.524596
0.504005
0.481524
0.457031
0.430381
0.401435
0.370072
0.336169
0.299608
0.260289
0.218115
0.172946
0.124593
0.0728972
0.0177847
-0.0407509
-0.102672
-0.167829
-0.235891
-0.306338
-0.378432
-0.451176
0.663474
0.663431
0.663342
0.662695
0.661504
0.659728
0.65735
0.654349
0.650705
0.646419
0.641486
0.635876
0.629542
0.622446
0.614574
0.605926
0.596491
0.586226
0.575045
0.562851
0.549546
0.535015
0.519105
0.501654
0.482522
0.461603
0.438788
0.413942
0.386925
0.35761
0.32588
0.291621
0.254723
0.215098
0.172645
0.12721
0.078603
0.0266758
-0.0286428
-0.0873768
-0.149502
-0.214876