/*--------------------------------*- C++ -*----------------------------------*\
  =========                 |
  \\      /  F ield         | OpenFOAM: The Open Source CFD Toolbox
   \\    /   O peration     | Website:  https://openfoam.org
    \\  /    A nd           | Version:  7
     \\/     M anipulation  |
\*---------------------------------------------------------------------------*/
FoamFile
{
    version     2.0;
    format      ascii;
    class       surfaceScalarField;
    location    "0.45";
    object      phi;
}
// * * * * * * * * * * * * * * * * * * * * * * * * * * * * * * * * * * * * * //

dimensions      [0 3 -1 0 0 0 0];

internalField   nonuniform List<scalar> 
17936
(
-1.80345e-06
1.80345e-06
-2.69423e-06
8.90785e-07
-2.52394e-06
-1.70286e-07
-1.76583e-06
-7.58116e-07
-7.45558e-07
-1.02027e-06
3.84284e-07
-1.12984e-06
1.54418e-06
-1.1599e-06
2.68874e-06
-1.14456e-06
3.79345e-06
-1.10471e-06
4.84692e-06
-1.05347e-06
5.84526e-06
-9.98341e-07
6.78898e-06
-9.43725e-07
7.68105e-06
-8.92065e-07
8.52556e-06
-8.44517e-07
9.32698e-06
-8.01421e-07
1.00896e-05
-7.62613e-07
1.08172e-05
-7.27598e-07
1.15129e-05
-6.95668e-07
1.21789e-05
-6.65996e-07
1.28165e-05
-6.37637e-07
1.34261e-05
-6.09577e-07
1.40068e-05
-5.80738e-07
1.45567e-05
-5.49922e-07
1.50726e-05
-5.15848e-07
1.55496e-05
-4.77062e-07
1.59815e-05
-4.31884e-07
1.63599e-05
-3.78356e-07
1.66739e-05
-3.14059e-07
1.69094e-05
-2.35494e-07
1.70472e-05
-1.37798e-07
1.70527e-05
-5.47024e-09
1.68739e-05
1.78845e-07
1.64747e-05
3.99129e-07
1.58065e-05
6.68244e-07
1.48104e-05
9.96135e-07
1.3419e-05
1.39137e-06
1.15661e-05
1.85286e-06
9.20939e-06
2.35674e-06
6.36309e-06
2.8463e-06
3.13375e-06
3.22935e-06
-3.37247e-07
3.47099e-06
-4.14616e-06
3.80891e-06
-7.45708e-06
3.31092e-06
-8.59463e-06
1.13755e-06
-6.0916e-06
-2.50303e-06
-6.0916e-06
-1.53545e-06
3.3389e-06
-1.77895e-06
1.13428e-06
-1.4078e-06
-5.41435e-07
-6.70083e-07
-1.49583e-06
2.84959e-07
-1.97531e-06
1.34864e-06
-2.19353e-06
2.4518e-06
-2.26306e-06
3.55165e-06
-2.2444e-06
4.62391e-06
-2.17697e-06
5.65575e-06
-2.08531e-06
6.6417e-06
-1.98429e-06
7.58071e-06
-1.88274e-06
8.47429e-06
-1.78564e-06
9.32524e-06
-1.69547e-06
1.01369e-05
-1.61306e-06
1.09125e-05
-1.53823e-06
1.1655e-05
-1.47014e-06
1.23669e-05
-1.4075e-06
1.30496e-05
-1.34877e-06
1.37042e-05
-1.29218e-06
1.43304e-05
-1.23576e-06
1.49271e-05
-1.17745e-06
1.54921e-05
-1.11492e-06
1.60219e-05
-1.04565e-06
1.65116e-05
-9.66814e-07
1.69549e-05
-8.75109e-07
1.73432e-05
-7.6671e-07
1.76661e-05
-6.36957e-07
1.79104e-05
-4.79825e-07
1.80604e-05
-2.87735e-07
1.81027e-05
-4.78387e-08
1.80239e-05
2.57728e-07
1.77841e-05
6.38844e-07
1.73406e-05
1.11181e-06
1.66409e-05
1.69586e-06
1.56207e-05
2.41152e-06
1.42027e-05
3.27088e-06
1.23012e-05
4.25827e-06
9.84232e-06
5.30514e-06
6.8087e-06
6.26297e-06
3.28413e-06
6.99557e-06
-4.37359e-07
7.5304e-06
-3.65279e-06
6.52635e-06
-5.4226e-06
2.90736e-06
-4.90084e-06
-3.02478e-06
-1.09924e-05
-1.05843e-06
4.39732e-06
-1.04224e-06
1.11809e-06
-6.05818e-07
-9.77862e-07
1.14542e-07
-2.21619e-06
1.01825e-06
-2.87902e-06
2.02391e-06
-3.19918e-06
3.06978e-06
-3.30893e-06
4.11808e-06
-3.29271e-06
5.14619e-06
-3.20508e-06
6.14153e-06
-3.08065e-06
7.0981e-06
-2.94086e-06
8.01404e-06
-2.79867e-06
8.88988e-06
-2.66149e-06
9.72748e-06
-2.53307e-06
1.05293e-05
-2.41485e-06
1.12978e-05
-2.30671e-06
1.20352e-05
-2.20756e-06
1.27433e-05
-2.11566e-06
1.34234e-05
-2.02882e-06
1.40757e-05
-1.94453e-06
1.47e-05
-1.85999e-06
1.52947e-05
-1.77218e-06
1.58575e-05
-1.67775e-06
1.63849e-05
-1.573e-06
1.68718e-05
-1.45379e-06
1.73121e-05
-1.31532e-06
1.76974e-05
-1.15202e-06
1.80176e-05
-9.57189e-07
1.82604e-05
-7.22604e-07
1.84107e-05
-4.38013e-07
1.84526e-05
-8.97909e-08
1.83694e-05
3.40918e-07
1.81351e-05
8.73117e-07
1.77182e-05
1.52877e-06
1.70812e-05
2.33286e-06
1.61813e-05
3.31141e-06
1.49696e-05
4.48255e-06
1.33909e-05
5.83697e-06
1.13882e-05
7.30781e-06
8.92044e-06
8.73078e-06
6.03309e-06
9.88292e-06
3.02325e-06
1.05402e-05
8.14841e-08
9.46811e-06
-2.20656e-06
5.1954e-06
-2.98034e-06
-2.251e-06
-1.39728e-05
-5.9426e-07
4.99158e-06
-4.32288e-07
9.5612e-07
5.48639e-08
-1.46501e-06
7.69423e-07
-2.93075e-06
1.64028e-06
-3.74989e-06
2.59795e-06
-4.15685e-06
3.59306e-06
-4.30403e-06
4.59315e-06
-4.2928e-06
5.57805e-06
-4.18999e-06
6.5361e-06
-4.0387e-06
7.4613e-06
-3.86606e-06
8.3513e-06
-3.68867e-06
9.20593e-06
-3.51612e-06
1.00263e-05
-3.35344e-06
1.08141e-05
-3.20264e-06
1.15711e-05
-3.06373e-06
1.2299e-05
-2.93548e-06
1.29991e-05
-2.81574e-06
1.36721e-05
-2.70179e-06
1.4318e-05
-2.59045e-06
1.49362e-05
-2.47816e-06
1.5525e-05
-2.36102e-06
1.6082e-05
-2.23472e-06
1.66034e-05
-2.09447e-06
1.70845e-05
-1.93489e-06
1.7519e-05
-1.74977e-06
1.78989e-05
-1.53194e-06
1.82146e-05
-1.27287e-06
1.84543e-05
-9.6232e-07
1.86041e-05
-5.87833e-07
1.86484e-05
-1.34066e-07
1.85701e-05
4.19252e-07
1.83481e-05
1.09508e-06
1.79577e-05
1.91916e-06
1.7371e-05
2.91954e-06
1.65584e-05
4.12403e-06
1.54893e-05
5.55167e-06
1.4132e-05
7.19424e-06
1.24543e-05
8.98558e-06
1.04273e-05
1.07578e-05
8.08041e-06
1.22298e-05
5.60607e-06
1.30146e-05
3.05941e-06
1.20148e-05
5.75226e-07
7.67958e-06
-8.97938e-07
-7.77836e-07
-1.48707e-05
-1.73779e-07
5.16536e-06
9.31266e-08
6.89214e-07
6.24602e-07
-1.99649e-06
1.34611e-06
-3.65226e-06
2.19394e-06
-4.59771e-06
3.11336e-06
-5.07627e-06
4.06462e-06
-5.25529e-06
5.02094e-06
-5.24912e-06
5.96521e-06
-5.13426e-06
6.88715e-06
-4.96064e-06
7.78114e-06
-4.76006e-06
8.64463e-06
-4.55216e-06
9.47699e-06
-4.34848e-06
1.02787e-05
-4.15516e-06
1.10508e-05
-3.97477e-06
1.17946e-05
-3.80751e-06
1.25112e-05
-3.65201e-06
1.32013e-05
-3.50584e-06
1.38653e-05
-3.36579e-06
1.45029e-05
-3.2281e-06
1.51133e-05
-3.08851e-06
1.56946e-05
-2.94232e-06
1.62442e-05
-2.78433e-06
1.67584e-05
-2.60873e-06
1.72325e-05
-2.40899e-06
1.76604e-05
-2.17761e-06
1.80344e-05
-1.90593e-06
1.83453e-05
-1.58379e-06
1.85821e-05
-1.19916e-06
1.8732e-05
-7.37733e-07
1.87804e-05
-1.82387e-07
1.87112e-05
4.88417e-07
1.85066e-05
1.29963e-06
1.81469e-05
2.27895e-06
1.76109e-05
3.45553e-06
1.68781e-05
4.85682e-06
1.59295e-05
6.50022e-06
1.4748e-05
8.37574e-06
1.33171e-05
1.04165e-05
1.16201e-05
1.24547e-05
9.67099e-06
1.41789e-05
7.5683e-06
1.51173e-05
5.33811e-06
1.4245e-05
2.92931e-06
1.00884e-05
8.47172e-07
1.3043e-06
-1.40235e-05
1.79511e-07
4.98585e-06
5.32011e-07
3.36714e-07
1.11871e-06
-2.58319e-06
1.85619e-06
-4.38973e-06
2.69129e-06
-5.43281e-06
3.58125e-06
-5.96624e-06
4.49538e-06
-6.16942e-06
5.41274e-06
-6.16648e-06
6.31961e-06
-6.04113e-06
7.20745e-06
-5.84847e-06
8.07131e-06
-5.62392e-06
8.90869e-06
-5.38954e-06
9.71866e-06
-5.15845e-06
1.05013e-05
-4.93775e-06
1.1257e-05
-4.73052e-06
1.19866e-05
-4.53714e-06
1.26908e-05
-4.35616e-06
1.33699e-05
-4.1849e-06
1.40238e-05
-4.01976e-06
1.46522e-05
-3.85644e-06
1.52537e-05
-3.69006e-06
1.58266e-05
-3.51518e-06
1.6368e-05
-3.32579e-06
1.68744e-05
-3.11513e-06
1.73411e-05
-2.87563e-06
1.77621e-05
-2.59859e-06
1.81301e-05
-2.27401e-06
1.84366e-05
-1.89026e-06
1.86712e-05
-1.43377e-06
1.88221e-05
-8.88661e-07
1.88761e-05
-2.36331e-07
1.88187e-05
5.45753e-07
1.86349e-05
1.48352e-06
1.83085e-05
2.60532e-06
1.78239e-05
3.94009e-06
1.7167e-05
5.51375e-06
1.63263e-05
7.34094e-06
1.52929e-05
9.40907e-06
1.40587e-05
1.16508e-05
1.26122e-05
1.39012e-05
1.09495e-05
1.58416e-05
9.10781e-06
1.69589e-05
7.07408e-06
1.62787e-05
4.69493e-06
1.24675e-05
2.14237e-06
3.85687e-06
-1.18812e-05
4.21653e-07
4.5642e-06
8.93003e-07
-1.34637e-07
1.54316e-06
-3.23335e-06
2.30601e-06
-5.15258e-06
3.13735e-06
-6.26415e-06
4.0056e-06
-6.83448e-06
4.88883e-06
-7.05265e-06
5.772e-06
-7.04964e-06
6.64495e-06
-6.91409e-06
7.50111e-06
-6.70463e-06
8.3364e-06
-6.45921e-06
9.14858e-06
-6.20171e-06
9.93656e-06
-5.94644e-06
1.07001e-05
-5.70125e-06
1.14392e-05
-5.46965e-06
1.21542e-05
-5.25218e-06
1.28454e-05
-5.04737e-06
1.35128e-05
-4.8523e-06
1.41561e-05
-4.66303e-06
1.47745e-05
-4.4748e-06
1.53666e-05
-4.28216e-06
1.59304e-05
-4.07902e-06
1.64632e-05
-3.85861e-06
1.69614e-05
-3.61332e-06
1.74204e-05
-3.3346e-06
1.78345e-05
-3.01269e-06
1.81968e-05
-2.63637e-06
1.84993e-05
-2.19273e-06
1.87324e-05
-1.66688e-06
1.88854e-05
-1.04167e-06
1.89464e-05
-2.97334e-07
1.89029e-05
5.89307e-07
1.87419e-05
1.64451e-06
1.84508e-05
2.89641e-06
1.80179e-05
4.37296e-06
1.74338e-05
6.09789e-06
1.66918e-05
8.08294e-06
1.57876e-05
1.03132e-05
1.47163e-05
1.27221e-05
1.34662e-05
1.51513e-05
1.20179e-05
1.729e-05
1.03605e-05
1.86163e-05
8.42848e-06
1.82107e-05
6.04339e-06
1.48526e-05
3.16585e-06
6.73441e-06
-8.71533e-06
5.73504e-07
3.9907e-06
1.17925e-06
-7.40379e-07
1.90468e-06
-3.95879e-06
2.70089e-06
-5.94879e-06
3.53565e-06
-7.09892e-06
4.38864e-06
-7.68747e-06
5.24649e-06
-7.9105e-06
6.09993e-06
-7.90309e-06
6.94245e-06
-7.7566e-06
7.7695e-06
-7.53167e-06
8.57805e-06
-7.26777e-06
9.36622e-06
-6.98988e-06
1.01329e-05
-6.71315e-06
1.08777e-05
-6.44598e-06
1.16002e-05
-6.19221e-06
1.23005e-05
-5.9525e-06
1.29785e-05
-5.72533e-06
1.36338e-05
-5.50763e-06
1.42659e-05
-5.29514e-06
1.48738e-05
-5.0827e-06
1.54561e-05
-4.86436e-06
1.60105e-05
-4.63343e-06
1.65343e-05
-4.38245e-06
1.7024e-05
-4.10305e-06
1.74752e-05
-3.78581e-06
1.78825e-05
-3.41999e-06
1.82395e-05
-2.99331e-06
1.85385e-05
-2.49173e-06
1.87709e-05
-1.89927e-06
1.89269e-05
-1.19776e-06
1.89963e-05
-3.66648e-07
1.8968e-05
6.17576e-07
1.88315e-05
1.78103e-06
1.85768e-05
3.15112e-06
1.81954e-05
4.7543e-06
1.76813e-05
6.61197e-06
1.70311e-05
8.73322e-06
1.62425e-05
1.11018e-05
1.5311e-05
1.36536e-05
1.42221e-05
1.62403e-05
1.29424e-05
1.85697e-05
1.14211e-05
2.01376e-05
9.54572e-06
2.00861e-05
7.12108e-06
1.72773e-05
3.97014e-06
9.88535e-06
-4.74519e-06
6.6967e-07
3.32103e-06
1.40742e-06
-1.47813e-06
2.21294e-06
-4.7643e-06
3.04696e-06
-6.78281e-06
3.88994e-06
-7.94191e-06
4.73256e-06
-8.53009e-06
5.56958e-06
-8.74752e-06
6.39729e-06
-8.7308e-06
7.21265e-06
-8.57196e-06
8.01317e-06
-8.33219e-06
8.7969e-06
-8.0515e-06
9.56242e-06
-7.75541e-06
1.03088e-05
-7.45949e-06
1.10353e-05
-7.1725e-06
1.17415e-05
-6.89845e-06
1.24271e-05
-6.63811e-06
1.30917e-05
-6.38992e-06
1.37347e-05
-6.15065e-06
1.43554e-05
-5.91579e-06
1.49525e-05
-5.67982e-06
1.55245e-05
-5.43633e-06
1.60691e-05
-5.1781e-06
1.65837e-05
-4.89706e-06
1.70649e-05
-4.58415e-06
1.75082e-05
-4.2292e-06
1.79089e-05
-3.82059e-06
1.82606e-05
-3.34511e-06
1.85567e-05
-2.78774e-06
1.8789e-05
-2.13161e-06
1.8949e-05
-1.35781e-06
1.90277e-05
-4.45311e-07
1.90159e-05
6.29423e-07
1.89049e-05
1.89202e-06
1.86871e-05
3.36885e-06
1.83568e-05
5.08462e-06
1.79103e-05
7.05845e-06
1.73463e-05
9.29724e-06
1.66637e-05
1.17844e-05
1.58568e-05
1.44604e-05
1.4907e-05
1.71901e-05
1.3769e-05
1.97076e-05
1.23603e-05
2.15462e-05
1.05264e-05
2.192e-05
8.03868e-06
1.9765e-05
4.61587e-06
1.33082e-05
-1.29324e-07
7.40813e-07
2.58021e-06
1.59684e-06
-2.33416e-06
2.47909e-06
-5.64656e-06
3.35112e-06
-7.65483e-06
4.20447e-06
-8.79526e-06
5.03987e-06
-9.36549e-06
5.85958e-06
-9.56722e-06
6.66492e-06
-9.53614e-06
7.45608e-06
-9.36312e-06
8.2325e-06
-9.10861e-06
8.99333e-06
-8.81232e-06
9.73764e-06
-8.49972e-06
1.04646e-05
-8.18648e-06
1.11736e-05
-7.88144e-06
1.18639e-05
-7.58875e-06
1.25349e-05
-7.30917e-06
1.31861e-05
-7.04113e-06
1.38167e-05
-6.78124e-06
1.44257e-05
-6.52477e-06
1.50118e-05
-6.26589e-06
1.55732e-05
-5.99779e-06
1.61079e-05
-5.71277e-06
1.66131e-05
-5.40222e-06
1.70854e-05
-5.0565e-06
1.7521e-05
-4.66474e-06
1.7915e-05
-4.21459e-06
1.82619e-05
-3.69201e-06
1.85553e-05
-3.08118e-06
1.87882e-05
-2.36448e-06
1.89529e-05
-1.52255e-06
1.90417e-05
-5.34132e-07
1.90471e-05
6.24033e-07
1.89623e-05
1.97685e-06
1.87817e-05
3.54943e-06
1.85017e-05
5.36468e-06
1.81206e-05
7.43955e-06
1.76385e-05
9.77929e-06
1.7055e-05
1.2368e-05
1.63632e-05
1.51522e-05
1.55404e-05
1.80129e-05
1.45315e-05
2.07165e-05
1.32295e-05
2.28483e-05
1.14416e-05
2.3708e-05
8.88103e-06
2.23255e-05
5.18349e-06
1.70057e-05
5.05416e-06
8.05353e-07
1.77486e-06
1.76284e-06
-3.29164e-06
2.71351e-06
-6.59723e-06
3.62024e-06
-8.56156e-06
4.48368e-06
-9.6587e-06
5.31339e-06
-1.01952e-05
6.11818e-06
-1.0372e-05
6.90384e-06
-1.03218e-05
7.67337e-06
-1.01327e-05
8.42796e-06
-9.8632e-06
9.16773e-06
-9.55209e-06
9.89228e-06
-9.22427e-06
1.0601e-05
-8.89517e-06
1.12931e-05
-8.57356e-06
1.19679e-05
-8.26357e-06
1.26247e-05
-7.96594e-06
1.32626e-05
-7.67903e-06
1.38807e-05
-7.39934e-06
1.44778e-05
-7.12194e-06
1.50527e-05
-6.84073e-06
1.56034e-05
-6.54853e-06
1.61279e-05
-6.23723e-06
1.66234e-05
-5.89776e-06
1.70869e-05
-5.51995e-06
1.75145e-05
-5.09237e-06
1.79019e-05
-4.60203e-06
1.82441e-05
-4.0342e-06
1.85353e-05
-3.37236e-06
1.87692e-05
-2.59835e-06
1.89392e-05
-1.69251e-06
1.90387e-05
-6.33689e-07
1.90619e-05
6.00889e-07
1.90035e-05
2.0352e-06
1.88599e-05
3.69301e-06
1.86292e-05
5.5954e-06
1.83114e-05
7.75734e-06
1.79079e-05
1.01827e-05
1.74188e-05
1.28571e-05
1.68368e-05
1.57343e-05
1.61363e-05
1.87135e-05
1.5255e-05
2.15977e-05
1.40676e-05
2.40356e-05
1.23461e-05
2.54295e-05
9.7381e-06
2.49335e-05
5.80683e-06
2.0937e-05
1.0861e-05
8.70839e-07
9.0402e-07
1.91535e-06
-4.33615e-06
2.92442e-06
-7.6063e-06
3.86039e-06
-9.49753e-06
4.7318e-06
-1.05301e-05
5.55591e-06
-1.10193e-05
6.34722e-06
-1.11633e-05
7.11525e-06
-1.10898e-05
7.86534e-06
-1.08827e-05
8.60013e-06
-1.0598e-05
9.3206e-06
-1.02726e-05
1.00268e-05
-9.93047e-06
1.07183e-05
-9.58666e-06
1.13944e-05
-9.24965e-06
1.20543e-05
-8.92345e-06
1.2697e-05
-8.60873e-06
1.33218e-05
-8.30377e-06
1.39274e-05
-8.00497e-06
1.45127e-05
-7.70723e-06
1.50762e-05
-7.40418e-06
1.5616e-05
-7.08836e-06
1.61301e-05
-6.75129e-06
1.66158e-05
-6.38348e-06
1.70702e-05
-5.97436e-06
1.74898e-05
-5.51202e-06
1.78707e-05
-4.98294e-06
1.82083e-05
-4.3718e-06
1.84975e-05
-3.66151e-06
1.87327e-05
-2.83352e-06
1.89082e-05
-1.86807e-06
1.90189e-05
-7.44333e-07
1.906e-05
5.59741e-07
1.90281e-05
2.06707e-06
1.89211e-05
3.80001e-06
1.87387e-05
5.77789e-06
1.84822e-05
8.01375e-06
1.81546e-05
1.05104e-05
1.77568e-05
1.32549e-05
1.72821e-05
1.6209e-05
1.67042e-05
1.92914e-05
1.59576e-05
2.23444e-05
1.49056e-05
2.50876e-05
1.32909e-05
2.70442e-05
1.06946e-05
2.75298e-05
6.56324e-06
2.50683e-05
1.74242e-05
9.39278e-07
-3.52589e-08
2.05979e-06
-5.45666e-06
3.1176e-06
-8.66411e-06
4.07644e-06
-1.04564e-05
4.95243e-06
-1.14061e-05
5.76997e-06
-1.18368e-05
6.54846e-06
-1.19418e-05
7.30038e-06
-1.18417e-05
8.03289e-06
-1.16153e-05
8.74973e-06
-1.13148e-05
9.45256e-06
-1.09754e-05
1.01418e-05
-1.06197e-05
1.08172e-05
-1.02621e-05
1.14781e-05
-9.91055e-06
1.21236e-05
-9.56898e-06
1.27528e-05
-9.23793e-06
1.33647e-05
-8.91558e-06
1.39579e-05
-8.59822e-06
1.45313e-05
-8.28061e-06
1.50833e-05
-7.95616e-06
1.56121e-05
-7.61715e-06
1.61155e-05
-7.25476e-06
1.65913e-05
-6.85921e-06
1.70365e-05
-6.41956e-06
1.7448e-05
-5.92355e-06
1.78223e-05
-5.35725e-06
1.81553e-05
-4.70484e-06
1.84426e-05
-3.94877e-06
1.86792e-05
-3.07017e-06
1.88606e-05
-2.04941e-06
1.89824e-05
-8.662e-07
1.90416e-05
5.00585e-07
1.9036e-05
2.07269e-06
1.89649e-05
3.87109e-06
1.88294e-05
5.91338e-06
1.86325e-05
8.21068e-06
1.83783e-05
1.07646e-05
1.80695e-05
1.35636e-05
1.77014e-05
1.65771e-05
1.725e-05
1.97428e-05
1.66513e-05
2.29431e-05
1.57665e-05
2.59724e-05
1.43206e-05
2.84901e-05
1.18352e-05
3.00152e-05
7.56704e-06
2.93364e-05
2.49913e-05
1.01039e-06
-1.04565e-06
2.19851e-06
-6.64478e-06
3.2968e-06
-9.7624e-06
4.27202e-06
-1.14316e-05
5.14845e-06
-1.22825e-05
5.95767e-06
-1.26461e-05
6.72342e-06
-1.27076e-05
7.4604e-06
-1.25787e-05
8.17695e-06
-1.23318e-05
8.87755e-06
-1.20154e-05
9.56433e-06
-1.16622e-05
1.0238e-05
-1.12934e-05
1.08984e-05
-1.09225e-05
1.1545e-05
-1.05571e-05
1.21769e-05
-1.02008e-05
1.2793e-05
-9.854e-06
1.33921e-05
-9.51473e-06
1.39731e-05
-9.17923e-06
1.45346e-05
-8.84212e-06
1.50751e-05
-8.49662e-06
1.55927e-05
-8.13477e-06
1.60855e-05
-7.74751e-06
1.6551e-05
-7.32476e-06
1.69868e-05
-6.85536e-06
1.73901e-05
-6.3268e-06
1.77577e-05
-5.72484e-06
1.80861e-05
-5.03327e-06
1.83714e-05
-4.23412e-06
1.86096e-05
-3.30835e-06
1.87968e-05
-2.23655e-06
1.89298e-05
-9.99225e-07
1.90067e-05
4.23638e-07
1.90269e-05
2.05254e-06
1.89909e-05
3.90709e-06
1.8901e-05
6.00323e-06
1.87616e-05
8.35011e-06
1.85785e-05
1.09477e-05
1.83569e-05
1.37852e-05
1.80954e-05
1.68385e-05
1.77756e-05
2.00627e-05
1.73413e-05
2.33773e-05
1.66638e-05
2.66499e-05
1.54708e-05
2.96831e-05
1.32465e-05
3.22395e-05
8.96777e-06
3.36152e-05
3.3959e-05
1.08312e-06
-2.12878e-06
2.33225e-06
-7.89391e-06
3.46457e-06
-1.08947e-05
4.44973e-06
-1.24167e-05
5.32185e-06
-1.31546e-05
6.12052e-06
-1.34447e-05
6.87331e-06
-1.34604e-05
7.59632e-06
-1.33017e-05
8.29842e-06
-1.30339e-05
8.98441e-06
-1.27014e-05
9.65669e-06
-1.23344e-05
1.03162e-05
-1.19529e-05
1.09628e-05
-1.15692e-05
1.15961e-05
-1.11904e-05
1.22149e-05
-1.08197e-05
1.28184e-05
-1.04575e-05
1.34053e-05
-1.01016e-05
1.39742e-05
-9.74822e-06
1.4524e-05
-9.39184e-06
1.50529e-05
-9.02555e-06
1.55593e-05
-8.64116e-06
1.60412e-05
-8.2294e-06
1.64964e-05
-7.77997e-06
1.69226e-05
-7.28157e-06
1.73174e-05
-6.72156e-06
1.76781e-05
-6.08553e-06
1.80017e-05
-5.35695e-06
1.82851e-05
-4.51749e-06
1.85247e-05
-3.54796e-06
1.87175e-05
-2.42935e-06
1.88615e-05
-1.14315e-06
1.89558e-05
3.29317e-07
1.90011e-05
2.00726e-06
1.89991e-05
3.90904e-06
1.89534e-05
6.049e-06
1.88693e-05
8.43415e-06
1.87548e-05
1.10623e-05
1.8618e-05
1.3922e-05
1.8463e-05
1.69936e-05
1.82793e-05
2.02463e-05
1.80258e-05
2.36308e-05
1.75983e-05
2.70775e-05
1.67597e-05
3.05217e-05
1.50267e-05
3.39725e-05
1.09607e-05
3.76812e-05
4.49197e-05
1.15539e-06
-3.28416e-06
2.46226e-06
-9.20078e-06
3.62342e-06
-1.20559e-05
4.61153e-06
-1.34049e-05
5.47382e-06
-1.40169e-05
6.25935e-06
-1.42303e-05
6.99893e-06
-1.41999e-05
7.70897e-06
-1.40118e-05
8.39813e-06
-1.37231e-05
9.07117e-06
-1.33745e-05
9.73055e-06
-1.29938e-05
1.03773e-05
-1.25996e-05
1.10114e-05
-1.22032e-05
1.16322e-05
-1.18112e-05
1.2239e-05
-1.14265e-05
1.28304e-05
-1.10489e-05
1.34055e-05
-1.06766e-05
1.39627e-05
-1.03055e-05
1.45008e-05
-9.92997e-06
1.50183e-05
-9.54304e-06
1.55135e-05
-9.13632e-06
1.59844e-05
-8.70035e-06
1.64292e-05
-8.22469e-06
1.68456e-05
-7.69799e-06
1.72316e-05
-7.10762e-06
1.75852e-05
-6.4391e-06
1.7904e-05
-5.6757e-06
1.81852e-05
-4.79871e-06
1.8426e-05
-3.78882e-06
1.86242e-05
-2.62755e-06
1.87787e-05
-1.29759e-06
1.88898e-05
2.18195e-07
1.89594e-05
1.93765e-06
1.89904e-05
3.87807e-06
1.8987e-05
6.05234e-06
1.89561e-05
8.46513e-06
1.89072e-05
1.11111e-05
1.88524e-05
1.39767e-05
1.88018e-05
1.70442e-05
1.87562e-05
2.0292e-05
1.8695e-05
2.3692e-05
1.85541e-05
2.72183e-05
1.81757e-05
3.09001e-05
1.71873e-05
3.49609e-05
1.36471e-05
4.12215e-05
5.85668e-05
-5.38153e-07
5.38153e-07
-3.0717e-06
2.5336e-06
-6.0372e-06
2.96547e-06
-8.67593e-06
2.63875e-06
-1.07263e-05
2.05042e-06
-1.20969e-05
1.37059e-06
-1.28208e-05
7.23881e-07
-1.29541e-05
1.33298e-07
-1.26148e-05
-3.39327e-07
-1.18866e-05
-7.2817e-07
-1.08211e-05
-1.06549e-06
-9.45762e-06
-1.36346e-06
-7.82059e-06
-1.63704e-06
-5.92299e-06
-1.8976e-06
-3.78605e-06
-2.13693e-06
-1.44425e-06
-2.34181e-06
1.05959e-06
-2.50382e-06
3.68809e-06
-2.62851e-06
6.39088e-06
-2.70277e-06
9.10861e-06
-2.71774e-06
1.17916e-05
-2.68295e-06
1.43811e-05
-2.58958e-06
1.67981e-05
-2.41694e-06
1.89534e-05
-2.15533e-06
2.07536e-05
-1.80018e-06
2.20934e-05
-1.33984e-06
2.28246e-05
-7.31156e-07
2.27962e-05
2.84017e-08
2.19351e-05
8.61057e-07
2.03509e-05
1.58424e-06
1.81566e-05
2.19425e-06
1.54909e-05
2.66574e-06
1.25161e-05
2.9748e-06
9.39723e-06
3.11885e-06
6.29889e-06
3.09834e-06
3.44527e-06
2.85362e-06
1.08753e-06
2.35776e-06
1.08753e-06
-1.35989e-06
1.89801e-06
-4.14833e-06
5.32211e-06
-7.1081e-06
5.92522e-06
-9.58369e-06
5.11436e-06
-1.13856e-05
3.85237e-06
-1.24978e-05
2.48278e-06
-1.29944e-05
1.22047e-06
-1.30108e-05
1.49743e-07
-1.25926e-05
-7.57509e-07
-1.1802e-05
-1.51884e-06
-1.06848e-05
-2.18269e-06
-9.27892e-06
-2.76929e-06
-7.60437e-06
-3.3116e-06
-5.66477e-06
-3.8372e-06
-3.48901e-06
-4.31267e-06
-1.11517e-06
-4.71566e-06
1.42314e-06
-5.04213e-06
4.07665e-06
-5.28202e-06
6.79799e-06
-5.42409e-06
9.53334e-06
-5.4531e-06
1.22158e-05
-5.36543e-06
1.48008e-05
-5.17459e-06
1.72323e-05
-4.84843e-06
1.94277e-05
-4.35072e-06
2.1295e-05
-3.66748e-06
2.27402e-05
-2.785e-06
2.36923e-05
-1.68325e-06
2.4081e-05
-3.60297e-07
2.38665e-05
1.07555e-06
2.29077e-05
2.543e-06
2.11855e-05
3.91643e-06
1.87554e-05
5.09587e-06
1.57382e-05
5.99203e-06
1.23046e-05
6.55239e-06
8.65656e-06
6.74642e-06
5.01483e-06
6.49536e-06
1.79377e-06
5.57885e-06
2.88129e-06
-2.07595e-06
3.97393e-06
-4.86469e-06
8.1109e-06
-7.57214e-06
8.63266e-06
-9.81678e-06
7.35902e-06
-1.14483e-05
5.48388e-06
-1.24468e-05
3.48126e-06
-1.2878e-05
1.65175e-06
-1.2822e-05
9.37157e-08
-1.23643e-05
-1.21523e-06
-1.15431e-05
-2.34006e-06
-1.04039e-05
-3.32184e-06
-8.98029e-06
-4.19292e-06
-7.29469e-06
-4.99721e-06
-5.36064e-06
-5.77125e-06
-3.19954e-06
-6.47376e-06
-8.40187e-07
-7.07502e-06
1.67398e-06
-7.55628e-06
4.29735e-06
-7.90538e-06
6.98308e-06
-8.1098e-06
9.68304e-06
-8.15307e-06
1.23449e-05
-8.02729e-06
1.49152e-05
-7.74489e-06
1.73289e-05
-7.26214e-06
1.95117e-05
-6.53355e-06
2.13809e-05
-5.53668e-06
2.28493e-05
-4.25334e-06
2.38377e-05
-2.67171e-06
2.42896e-05
-8.1217e-07
2.41102e-05
1.25494e-06
2.32352e-05
3.41801e-06
2.16264e-05
5.5253e-06
1.93099e-05
7.41233e-06
1.63777e-05
8.92424e-06
1.29819e-05
9.94815e-06
9.32007e-06
1.04083e-05
5.6052e-06
1.02102e-05
2.30597e-06
8.87809e-06
5.18725e-06
-2.69632e-06
6.67022e-06
-5.43941e-06
1.0854e-05
-7.94635e-06
1.11396e-05
-9.99931e-06
9.41198e-06
-1.14823e-05
6.96682e-06
-1.23682e-05
4.36725e-06
-1.27112e-05
1.99468e-06
-1.25978e-05
-1.96945e-08
-1.20947e-05
-1.71832e-06
-1.12481e-05
-3.18664e-06
-1.00949e-05
-4.47506e-06
-8.66474e-06
-5.62307e-06
-6.98007e-06
-6.68189e-06
-5.05909e-06
-7.69224e-06
-2.91741e-06
-8.61543e-06
-5.8182e-07
-9.41061e-06
1.9045e-06
-1.00426e-05
4.49646e-06
-1.04973e-05
7.14948e-06
-1.07628e-05
9.82052e-06
-1.08241e-05
1.24637e-05
-1.06705e-05
1.50172e-05
-1.02984e-05
1.74136e-05
-9.65855e-06
1.95836e-05
-8.70354e-06
2.14499e-05
-7.40302e-06
2.29309e-05
-5.7343e-06
2.39485e-05
-3.68931e-06
2.44278e-05
-1.29145e-06
2.42903e-05
1.39242e-06
2.34687e-05
4.23962e-06
2.19232e-05
7.07077e-06
1.96661e-05
9.66937e-06
1.67768e-05
1.18136e-05
1.34043e-05
1.33207e-05
9.75733e-06
1.40553e-05
6.0937e-06
1.38739e-05
2.78743e-06
1.21844e-05
7.97467e-06
-3.15251e-06
9.82271e-06
-5.90821e-06
1.36098e-05
-8.26718e-06
1.34985e-05
-1.01601e-05
1.13049e-05
-1.15083e-05
8.31501e-06
-1.22801e-05
5.139e-06
-1.25268e-05
2.24139e-06
-1.23425e-05
-2.03994e-07
-1.17938e-05
-2.26702e-06
-1.09207e-05
-4.05977e-06
-9.75487e-06
-5.64086e-06
-8.32386e-06
-7.05409e-06
-6.64757e-06
-8.35818e-06
-4.74205e-06
-9.59777e-06
-2.61941e-06
-1.07381e-05
-3.05334e-07
-1.17247e-05
2.15829e-06
-1.25062e-05
4.72527e-06
-1.30643e-05
7.35388e-06
-1.33914e-05
1.00044e-05
-1.34746e-05
1.26304e-05
-1.32965e-05
1.51686e-05
-1.28366e-05
1.75535e-05
-1.20434e-05
1.97173e-05
-1.08674e-05
2.15857e-05
-9.27141e-06
2.30797e-05
-7.22832e-06
2.41207e-05
-4.73023e-06
2.46306e-05
-1.80138e-06
2.45343e-05
1.48866e-06
2.37644e-05
5.00958e-06
2.22763e-05
8.55888e-06
2.00697e-05
1.1876e-05
1.72099e-05
1.46733e-05
1.3841e-05
1.66896e-05
1.01811e-05
1.77151e-05
6.51107e-06
1.75439e-05
3.10877e-06
1.55867e-05
1.10834e-05
-3.5176e-06
1.33403e-05
-6.30622e-06
1.63984e-05
-8.54815e-06
1.57405e-05
-1.03028e-05
1.30596e-05
-1.1525e-05
9.53721e-06
-1.21771e-05
5.79102e-06
-1.23127e-05
2.37706e-06
-1.20442e-05
-4.7256e-07
-1.14423e-05
-2.86893e-06
-1.05383e-05
-4.96376e-06
-9.35843e-06
-6.82074e-06
-7.92896e-06
-8.48357e-06
-6.26633e-06
-1.00208e-05
-4.3794e-06
-1.14847e-05
-2.27587e-06
-1.28416e-05
2.02639e-08
-1.40208e-05
2.46548e-06
-1.49514e-05
5.01263e-06
-1.56115e-05
7.62186e-06
-1.60006e-05
1.02557e-05
-1.61084e-05
1.28671e-05
-1.5908e-05
1.53948e-05
-1.53643e-05
1.77749e-05
-1.44235e-05
1.99403e-05
-1.30328e-05
2.18176e-05
-1.11486e-05
2.33286e-05
-8.73934e-06
2.4394e-05
-5.79561e-06
2.49354e-05
-2.34276e-06
2.48777e-05
1.54638e-06
2.41538e-05
5.73344e-06
2.27157e-05
9.99696e-06
2.05524e-05
1.40393e-05
1.77133e-05
1.75123e-05
1.4331e-05
2.0072e-05
1.06242e-05
2.14219e-05
6.88242e-06
2.12857e-05
3.3418e-06
1.91273e-05
1.44252e-05
-3.8482e-06
1.71885e-05
-6.6653e-06
1.92155e-05
-8.7956e-06
1.78708e-05
-1.04215e-05
1.46854e-05
-1.15199e-05
1.06357e-05
-1.20403e-05
6.31141e-06
-1.20418e-05
2.3785e-06
-1.16694e-05
-8.44962e-07
-1.10027e-05
-3.53558e-06
-1.00613e-05
-5.90516e-06
-8.86427e-06
-8.01784e-06
-7.43764e-06
-9.91021e-06
-5.79372e-06
-1.16648e-05
-3.93077e-06
-1.33477e-05
-1.84901e-06
-1.49234e-05
4.29848e-07
-1.62997e-05
2.85829e-06
-1.73799e-05
5.38666e-06
-1.81399e-05
7.97682e-06
-1.85908e-05
1.05943e-05
-1.87259e-05
1.31934e-05
-1.85071e-05
1.5715e-05
-1.78859e-05
1.80963e-05
-1.68048e-05
2.02701e-05
-1.52067e-05
2.21629e-05
-1.30414e-05
2.36961e-05
-1.02725e-05
2.4789e-05
-6.88846e-06
2.53619e-05
-2.91574e-06
2.53393e-05
1.56903e-06
2.46539e-05
6.41884e-06
2.32552e-05
1.13956e-05
2.11241e-05
1.61704e-05
1.8295e-05
2.03414e-05
1.48834e-05
2.34835e-05
1.10995e-05
2.52058e-05
7.23539e-06
2.51498e-05
3.52705e-06
2.28356e-05
1.79523e-05
-4.18941e-06
2.13779e-05
-7.01098e-06
2.20371e-05
-9.00637e-06
1.98662e-05
-1.04986e-05
1.61777e-05
-1.14679e-05
1.16049e-05
-1.18362e-05
6.6797e-06
-1.16684e-05
2.21063e-06
-1.11639e-05
-1.34945e-06
-1.04175e-05
-4.282e-06
-9.43076e-06
-6.89189e-06
-8.21282e-06
-9.23579e-06
-6.79114e-06
-1.13319e-05
-5.1733e-06
-1.32826e-05
-3.34329e-06
-1.51777e-05
-1.28868e-06
-1.6978e-05
9.68038e-07
-1.85564e-05
3.3769e-06
-1.97887e-05
5.8823e-06
-2.06453e-05
8.44841e-06
-2.11569e-05
1.1046e-05
-2.13235e-05
1.36323e-05
-2.10934e-05
1.61495e-05
-2.04031e-05
1.85354e-05
-1.91907e-05
2.07226e-05
-1.73939e-05
2.26365e-05
-1.49553e-05
2.41967e-05
-1.18328e-05
2.53203e-05
-8.01204e-06
2.59253e-05
-3.52077e-06
2.59343e-05
1.56004e-06
2.52789e-05
7.0742e-06
2.39068e-05
1.27678e-05
2.17931e-05
1.82841e-05
1.89596e-05
2.31749e-05
1.55033e-05
2.69399e-05
1.16177e-05
2.90913e-05
7.5935e-06
2.9174e-05
3.69207e-06
2.67371e-05
2.16443e-05
-4.587e-06
2.59649e-05
-7.36233e-06
2.48124e-05
-9.16337e-06
2.16672e-05
-1.05008e-05
1.75151e-05
-1.13266e-05
1.24307e-05
-1.15113e-05
6.86443e-06
-1.11228e-05
1.82208e-06
-1.04466e-05
-2.0256e-06
-9.60261e-06
-5.12604e-06
-8.56326e-06
-7.93125e-06
-7.32227e-06
-1.04768e-05
-5.9107e-06
-1.27435e-05
-4.33111e-06
-1.48622e-05
-2.54901e-06
-1.69598e-05
-5.35286e-07
-1.89917e-05
1.69156e-06
-2.07833e-05
4.07266e-06
-2.21699e-05
6.54432e-06
-2.31169e-05
9.07467e-06
-2.36873e-05
1.16432e-05
-2.3892e-05
1.42111e-05
-2.36613e-05
1.67213e-05
-2.29133e-05
1.91116e-05
-2.15809e-05
2.13141e-05
-1.95964e-05
2.32526e-05
-1.68938e-05
2.48438e-05
-1.3424e-05
2.60012e-05
-9.16942e-06
2.6639e-05
-4.15861e-06
2.66766e-05
1.52246e-06
2.6043e-05
7.70779e-06
2.46836e-05
1.41272e-05
2.25697e-05
2.0398e-05
1.97138e-05
2.60309e-05
1.61953e-05
3.04584e-05
1.21879e-05
3.30988e-05
7.97453e-06
3.33873e-05
3.854e-06
3.08576e-05
2.54983e-05
-5.09601e-06
3.10609e-05
-7.73006e-06
2.74465e-05
-9.22742e-06
2.31646e-05
-1.03691e-05
1.86568e-05
-1.1027e-05
1.30886e-05
-1.09837e-05
6.82109e-06
-1.03028e-05
1.14117e-06
-9.40164e-06
-2.92674e-06
-8.4419e-06
-6.08578e-06
-7.34722e-06
-9.02593e-06
-6.08601e-06
-1.1738e-05
-4.69595e-06
-1.41335e-05
-3.17518e-06
-1.6383e-05
-1.46397e-06
-1.8671e-05
4.87134e-07
-2.09429e-05
2.67013e-06
-2.29663e-05
5.00878e-06
-2.45085e-05
7.42788e-06
-2.5536e-05
9.90197e-06
-2.61614e-05
1.24244e-05
-2.64143e-05
1.49619e-05
-2.61989e-05
1.74567e-05
-2.54081e-05
1.98461e-05
-2.39702e-05
2.2062e-05
-2.18123e-05
2.40257e-05
-1.88575e-05
2.56502e-05
-1.50485e-05
2.68438e-05
-1.03631e-05
2.75156e-05
-4.83036e-06
2.75795e-05
1.45854e-06
2.69603e-05
8.32703e-06
2.56e-05
1.54875e-05
2.34667e-05
2.25312e-05
2.05666e-05
2.8931e-05
1.69656e-05
3.40595e-05
1.28173e-05
3.72471e-05
8.39205e-06
3.78126e-05
4.02592e-06
3.52237e-05
2.95243e-05
-5.7754e-06
3.68363e-05
-8.1081e-06
2.97792e-05
-9.12147e-06
2.4178e-05
-1.00021e-05
1.95374e-05
-1.04574e-05
1.35439e-05
-1.01301e-05
6.49377e-06
-9.06433e-06
7.54622e-08
-7.872e-06
-4.11907e-06
-6.78372e-06
-7.17405e-06
-5.64248e-06
-1.01672e-05
-4.37425e-06
-1.30062e-05
-3.02736e-06
-1.54804e-05
-1.59719e-06
-1.78132e-05
7.96921e-09
-2.02762e-05
1.86857e-06
-2.28035e-05
3.9837e-06
-2.50814e-05
6.25822e-06
-2.67831e-05
8.59662e-06
-2.78744e-05
1.09832e-05
-2.8548e-05
1.34328e-05
-2.88639e-05
1.59201e-05
-2.86861e-05
1.8384e-05
-2.7872e-05
2.07612e-05
-2.63474e-05
2.29837e-05
-2.40349e-05
2.49701e-05
-2.08439e-05
2.6628e-05
-1.67065e-05
2.78597e-05
-1.15947e-05
2.85666e-05
-5.53731e-06
2.86556e-05
1.36951e-06
2.80447e-05
8.93789e-06
2.6671e-05
1.68612e-05
2.4499e-05
2.47032e-05
2.15304e-05
3.18996e-05
1.78224e-05
3.77675e-05
1.35127e-05
4.15568e-05
8.85636e-06
4.24689e-05
4.21884e-06
3.98613e-05
3.37431e-05
-6.6726e-06
4.3509e-05
-8.44849e-06
3.15551e-05
-8.69922e-06
2.44287e-05
-9.22448e-06
2.00627e-05
-9.43237e-06
1.37518e-05
-8.7651e-06
5.8265e-06
-7.2151e-06
-1.47452e-06
-5.66369e-06
-5.67048e-06
-4.4484e-06
-8.38934e-06
-3.28887e-06
-1.13267e-05
-2.04264e-06
-1.42525e-05
-7.74571e-07
-1.67484e-05
5.20289e-07
-1.91081e-05
1.97093e-06
-2.17268e-05
3.69832e-06
-2.45309e-05
5.71513e-06
-2.70982e-05
7.8981e-06
-2.8966e-05
1.01183e-05
-3.00946e-05
1.23741e-05
-3.08037e-05
1.47135e-05
-3.12033e-05
1.7122e-05
-3.10946e-05
1.95321e-05
-3.02822e-05
2.18789e-05
-2.86943e-05
2.40959e-05
-2.62519e-05
2.60983e-05
-2.28463e-05
2.77876e-05
-1.83958e-05
2.9058e-05
-1.2865e-05
2.98017e-05
-6.28107e-06
2.99159e-05
1.25534e-06
2.93093e-05
9.54447e-06
2.79117e-05
1.82589e-05
2.56825e-05
2.69324e-05
2.26203e-05
3.49618e-05
1.87772e-05
4.16107e-05
1.42816e-05
4.60523e-05
9.37552e-06
4.7375e-05
4.4423e-06
4.47945e-05
3.81854e-05
-7.83548e-06
5.13445e-05
-8.6056e-06
3.23252e-05
-7.68433e-06
2.35075e-05
-7.73275e-06
2.01111e-05
-7.63533e-06
1.36544e-05
-6.5954e-06
4.78658e-06
-4.51161e-06
-3.55829e-06
-2.57147e-06
-7.61062e-06
-1.25448e-06
-9.70633e-06
-1.27084e-07
-1.24541e-05
1.05237e-06
-1.54319e-05
2.1964e-06
-1.78925e-05
3.29636e-06
-2.0208e-05
4.52802e-06