/*--------------------------------*- C++ -*----------------------------------*\
  =========                 |
  \\      /  F ield         | OpenFOAM: The Open Source CFD Toolbox
   \\    /   O peration     | Website:  https://openfoam.org
    \\  /    A nd           | Version:  7
     \\/     M anipulation  |
\*---------------------------------------------------------------------------*/
FoamFile
{
    version     2.0;
    format      ascii;
    class       volVectorField;
    location    "0.45";
    object      U;
}
// * * * * * * * * * * * * * * * * * * * * * * * * * * * * * * * * * * * * * //

dimensions      [0 1 -1 0 0 0 0];

internalField   nonuniform List<vector> 
9072
(
(-0.028365 0.0120438 0)
(-0.0570736 0.00667661 0)
(-0.0637769 -0.00105249 0)
(-0.0501151 -0.00550261 0)
(-0.0292897 -0.00720993 0)
(-0.00429283 -0.00779606 0)
(0.0220638 -0.0078847 0)
(0.0484604 -0.00768397 0)
(0.0741939 -0.00733715 0)
(0.0988673 -0.00693244 0)
(0.122304 -0.00651631 0)
(0.144472 -0.00611505 0)
(0.165418 -0.0057428 0)
(0.185225 -0.0054056 0)
(0.203997 -0.00510436 0)
(0.221833 -0.00483694 0)
(0.23883 -0.00459921 0)
(0.255065 -0.00438584 0)
(0.2706 -0.00419086 0)
(0.285478 -0.00400759 0)
(0.299717 -0.00382911 0)
(0.313312 -0.00364813 0)
(0.326231 -0.00345662 0)
(0.338417 -0.00324615 0)
(0.349778 -0.00300721 0)
(0.36019 -0.00272875 0)
(0.369486 -0.00239803 0)
(0.377448 -0.00199924 0)
(0.383801 -0.00150774 0)
(0.38814 -0.000890086 0)
(0.390145 4.73135e-05 0)
(0.38836 0.00128398 0)
(0.381975 0.0029105 0)
(0.370094 0.00490855 0)
(0.351521 0.00730413 0)
(0.324806 0.0101522 0)
(0.288378 0.0134198 0)
(0.240822 0.0168557 0)
(0.181564 0.0199154 0)
(0.111094 0.021839 0)
(0.0346339 0.022545 0)
(-0.0494406 0.0254084 0)
(-0.143909 0.0210688 0)
(-0.203816 0.00222539 0)
(-0.186683 -0.0242245 0)
(-0.0797649 -0.0411997 0)
(-0.0314221 0.0282399 0)
(-0.0414107 0.0120741 0)
(-0.0385529 -0.00311672 0)
(-0.0249771 -0.0120111 0)
(-0.00510892 -0.016297 0)
(0.0183698 -0.0182205 0)
(0.0433561 -0.018818 0)
(0.0686453 -0.0186521 0)
(0.0935225 -0.0180688 0)
(0.117584 -0.0172817 0)
(0.140633 -0.0164178 0)
(0.162605 -0.0155525 0)
(0.183514 -0.0147281 0)
(0.203413 -0.013965 0)
(0.222375 -0.01327 0)
(0.240478 -0.0126413 0)
(0.257795 -0.0120714 0)
(0.274387 -0.0115494 0)
(0.2903 -0.011062 0)
(0.305565 -0.0105941 0)
(0.320188 -0.0101294 0)
(0.334157 -0.00965019 0)
(0.347434 -0.00913715 0)
(0.359954 -0.00856927 0)
(0.371623 -0.00792281 0)
(0.382313 -0.00717034 0)
(0.391856 -0.00627982 0)
(0.400038 -0.00521186 0)
(0.406592 -0.00391254 0)
(0.411188 -0.00230999 0)
(0.413395 -0.000221816 0)
(0.413166 0.00245538 0)
(0.409756 0.00582661 0)
(0.40223 0.00998059 0)
(0.389528 0.0150786 0)
(0.370354 0.0212925 0)
(0.343114 0.0286766 0)
(0.305896 0.0369843 0)
(0.256709 0.0454743 0)
(0.193843 0.0527364 0)
(0.118251 0.0578627 0)
(0.0346964 0.0626577 0)
(-0.0561334 0.0544565 0)
(-0.114489 0.0210061 0)
(-0.138908 -0.0343223 0)
(-0.073032 -0.0966872 0)
(-0.0242345 0.0423959 0)
(-0.0260556 0.0124576 0)
(-0.0206591 -0.00813444 0)
(-0.00676734 -0.0200376 0)
(0.0122384 -0.0263072 0)
(0.0344272 -0.0292784 0)
(0.0580801 -0.0302762 0)
(0.0821298 -0.0300979 0)
(0.105918 -0.0292582 0)
(0.129062 -0.0280821 0)
(0.151362 -0.0267694 0)
(0.17274 -0.0254398 0)
(0.193187 -0.0241617 0)
(0.212734 -0.0229693 0)
(0.231435 -0.0218752 0)
(0.249348 -0.020878 0)
(0.266528 -0.019967 0)
(0.283022 -0.019126 0)
(0.298865 -0.0183344 0)
(0.314075 -0.0175688 0)
(0.328653 -0.0168036 0)
(0.342578 -0.0160107 0)
(0.355809 -0.0151593 0)
(0.368277 -0.0142158 0)
(0.379887 -0.0131418 0)
(0.390511 -0.0118935 0)
(0.399985 -0.0104196 0)
(0.408101 -0.0086582 0)
(0.414603 -0.00653165 0)
(0.419182 -0.00394167 0)
(0.421451 -0.00075482 0)
(0.421104 0.00322704 0)
(0.417646 0.00818048 0)
(0.410413 0.0143175 0)
(0.398622 0.0218853 0)
(0.381371 0.0311432 0)
(0.357627 0.0422622 0)
(0.326209 0.0551111 0)
(0.285791 0.0689433 0)
(0.234969 0.0820261 0)
(0.172924 0.0923243 0)
(0.104902 0.0986413 0)
(0.0307601 0.0869003 0)
(-0.0275406 0.0431564 0)
(-0.0794292 -0.0322362 0)
(-0.0460736 -0.141721 0)
(-0.0150597 0.0516758 0)
(-0.0133315 0.0114733 0)
(-0.00586574 -0.0130442 0)
(0.00844175 -0.0277173 0)
(0.0269163 -0.0357862 0)
(0.0480966 -0.0397509 0)
(0.0705946 -0.0411573 0)
(0.093502 -0.0410154 0)
(0.116241 -0.0399859 0)
(0.138465 -0.0384918 0)
(0.159984 -0.036798 0)
(0.180711 -0.0350651 0)
(0.200623 -0.0333859 0)
(0.219736 -0.0318082 0)
(0.238084 -0.0303507 0)
(0.25571 -0.0290129 0)
(0.272653 -0.0277821 0)
(0.288949 -0.0266373 0)
(0.304621 -0.0255519 0)
(0.319679 -0.024495 0)
(0.334115 -0.0234321 0)
(0.347906 -0.0223258 0)
(0.361003 -0.0211344 0)
(0.373337 -0.0198122 0)
(0.384813 -0.0183074 0)
(0.395303 -0.0165605 0)
(0.404649 -0.0145023 0)
(0.412649 -0.0120502 0)
(0.41906 -0.00910405 0)
(0.423592 -0.00554056 0)
(0.425894 -0.00120439 0)
(0.425613 0.00411682 0)
(0.422318 0.0106525 0)
(0.415484 0.018667 0)
(0.404506 0.0284522 0)
(0.388727 0.0403046 0)
(0.367465 0.054432 0)
(0.340017 0.0707489 0)
(0.305649 0.0885421 0)
(0.263586 0.106011 0)
(0.21292 0.120363 0)
(0.157506 0.12803 0)
(0.0971478 0.116435 0)
(0.0427444 0.0693554 0)
(-0.0207472 -0.0178186 0)
(-0.0137377 -0.162108 0)
(-0.00617945 0.0561156 0)
(-0.00232221 0.00914803 0)
(0.00685116 -0.0185039 0)
(0.021701 -0.0354478 0)
(0.0399195 -0.0450426 0)
(0.0603414 -0.0498648 0)
(0.0818677 -0.051646 0)
(0.103756 -0.0515588 0)
(0.125522 -0.0503826 0)
(0.146866 -0.0486233 0)
(0.167617 -0.0466015 0)
(0.187687 -0.0445142 0)
(0.207046 -0.0424765 0)
(0.225695 -0.0405489 0)
(0.243655 -0.0387561 0)
(0.260953 -0.0370997 0)
(0.277618 -0.0355652 0)
(0.293672 -0.0341279 0)
(0.30913 -0.0327558 0)
(0.323993 -0.0314111 0)
(0.338247 -0.0300515 0)
(0.351863 -0.0286305 0)
(0.36479 -0.0270965 0)
(0.376959 -0.0253923 0)
(0.388272 -0.0234533 0)
(0.398606 -0.0212054 0)
(0.407806 -0.0185627 0)
(0.415682 -0.015424 0)
(0.422002 -0.0116686 0)
(0.426495 -0.00715128 0)
(0.428842 -0.00169625 0)
(0.4287 0.00492301 0)
(0.425686 0.0129671 0)
(0.419365 0.0227284 0)
(0.409269 0.0345192 0)
(0.394917 0.0486413 0)
(0.375856 0.0652953 0)
(0.35168 0.0843869 0)
(0.322013 0.105201 0)
(0.28648 0.125923 0)
(0.244429 0.143305 0)
(0.197897 0.152535 0)
(0.147288 0.142405 0)
(0.0965202 0.0959753 0)
(0.0300361 0.00202281 0)
(0.0149315 -0.159533 0)
(0.000982626 0.0557236 0)
(0.00681962 0.00588291 0)
(0.0177641 -0.024516 0)
(0.0333328 -0.0433036 0)
(0.0515325 -0.0541116 0)
(0.0714173 -0.0596203 0)
(0.0921462 -0.0617074 0)
(0.113143 -0.0616677 0)
(0.134025 -0.0603718 0)
(0.154548 -0.0583905 0)
(0.174563 -0.0560893 0)
(0.193992 -0.0536949 0)
(0.2128 -0.0513415 0)
(0.230978 -0.0491008 0)
(0.248535 -0.0470036 0)
(0.265488 -0.045053 0)
(0.281852 -0.043234 0)
(0.297642 -0.0415185 0)
(0.312861 -0.0398699 0)
(0.327504 -0.0382444 0)
(0.341552 -0.0365927 0)
(0.354972 -0.0348599 0)
(0.36771 -0.0329851 0)
(0.379696 -0.0309006 0)
(0.390833 -0.0285299 0)
(0.401003 -0.0257855 0)
(0.410055 -0.0225661 0)
(0.417809 -0.0187538 0)
(0.424047 -0.0142101 0)
(0.42852 -0.0087711 0)
(0.430937 -0.0022433 0)
(0.430983 0.00561195 0)
(0.42832 0.0150711 0)
(0.422591 0.0264387 0)
(0.413428 0.040031 0)
(0.400485 0.0561378 0)
(0.383467 0.0749334 0)
(0.362152 0.0962963 0)
(0.336357 0.119501 0)
(0.305896 0.142746 0)
(0.270272 0.162595 0)
(0.230075 0.173648 0)
(0.185659 0.165163 0)
(0.137353 0.121719 0)
(0.0702379 0.0269495 0)
(0.0366612 -0.141612 0)
(0.00554714 0.0520034 0)
(0.0138894 0.00147635 0)
(0.0269794 -0.0311679 0)
(0.043492 -0.0513827 0)
(0.0618814 -0.0630887 0)
(0.0814213 -0.0690947 0)
(0.101511 -0.0713959 0)
(0.121741 -0.0713758 0)
(0.141831 -0.0699705 0)
(0.161598 -0.0677976 0)
(0.180923 -0.065256 0)
(0.199739 -0.0625951 0)
(0.218009 -0.059964 0)
(0.23572 -0.057444 0)
(0.252872 -0.0550709 0)
(0.269471 -0.0528496 0)
(0.285523 -0.0507646 0)
(0.301033 -0.0487853 0)
(0.315999 -0.046871 0)
(0.330407 -0.0449728 0)
(0.344234 -0.0430347 0)
(0.357443 -0.0409944 0)
(0.36998 -0.0387825 0)
(0.381773 -0.0363216 0)
(0.392728 -0.0335244 0)
(0.40273 -0.0302909 0)
(0.411636 -0.0265064 0)
(0.419275 -0.0220379 0)
(0.425447 -0.0167314 0)
(0.429919 -0.0104079 0)
(0.432432 -0.00285964 0)
(0.432705 0.00616102 0)
(0.430445 0.016937 0)
(0.425359 0.0297745 0)
(0.417162 0.0449823 0)
(0.405609 0.0628288 0)
(0.390516 0.0834564 0)
(0.371769 0.106715 0)
(0.349282 0.131879 0)
(0.32292 0.157194 0)
(0.292196 0.179238 0)
(0.256806 0.192356 0)
(0.216067 0.186268 0)
(0.16883 0.14745 0)
(0.101479 0.0565754 0)
(0.0533517 -0.112299 0)
(0.00772801 0.0464319 0)
(0.019106 -0.0043544 0)
(0.0346602 -0.0385811 0)
(0.0523166 -0.0597837 0)
(0.0710634 -0.0720663 0)
(0.0904147 -0.0783699 0)
(0.110002 -0.0807792 0)
(0.129578 -0.0807367 0)
(0.148968 -0.0792191 0)
(0.168047 -0.0768739 0)
(0.186731 -0.0741215 0)
(0.204966 -0.0712271 0)
(0.22272 -0.0683508 0)
(0.239976 -0.0655809 0)
(0.256727 -0.0629572 0)
(0.27297 -0.0604864 0)
(0.288705 -0.0581524 0)
(0.303928 -0.0559227 0)
(0.31863 -0.0537531 0)
(0.332792 -0.0515898 0)
(0.346388 -0.0493713 0)
(0.359377 -0.0470284 0)
(0.371704 -0.0444841 0)
(0.383296 -0.041652 0)
(0.394065 -0.038435 0)
(0.403899 -0.0347221 0)
(0.412663 -0.0303862 0)
(0.420197 -0.0252814 0)
(0.426315 -0.0192407 0)
(0.430807 -0.0120728 0)
(0.433442 -0.00355943 0)
(0.433973 0.00655227 0)
(0.432153 0.0185458 0)
(0.427744 0.0327219 0)
(0.420531 0.049375 0)
(0.410344 0.0687487 0)
(0.397077 0.0909542 0)
(0.380681 0.115821 0)
(0.361107 0.14264 0)
(0.338197 0.169747 0)
(0.311385 0.193867 0)
(0.279769 0.209411 0)
(0.241476 0.206755 0)
(0.194286 0.173349 0)
(0.126492 0.0893857 0)
(0.0660382 -0.0732306 0)
(0.00850322 0.0396554 0)
(0.0230123 -0.011645 0)
(0.0410748 -0.0468468 0)
(0.0599771 -0.0685775 0)
(0.0791853 -0.0811122 0)
(0.0984606 -0.08751 0)
(0.117656 -0.0899147 0)
(0.136676 -0.0897989 0)
(0.155447 -0.0881568 0)
(0.173905 -0.0856494 0)
(0.191999 -0.082708 0)
(0.209691 -0.0796066 0)
(0.226955 -0.0765121 0)
(0.243771 -0.0735174 0)
(0.260129 -0.0706654 0)
(0.27602 -0.0679638 0)
(0.291436 -0.0653961 0)
(0.306367 -0.0629282 0)
(0.320799 -0.0605127 0)
(0.334708 -0.058092 0)
(0.348065 -0.0555991 0)
(0.360825 -0.0529588 0)
(0.372935 -0.0500873 0)
(0.384324 -0.0468902 0)
(0.394903 -0.0432615 0)
(0.404569 -0.0390805 0)
(0.413195 -0.0342091 0)
(0.420633 -0.0284903 0)
(0.426711 -0.0217461 0)
(0.431241 -0.0137761 0)
(0.434019 -0.00435512 0)
(0.434834 0.00677155 0)
(0.43348 0.0198837 0)
(0.42977 0.0352723 0)
(0.423545 0.0532136 0)
(0.414697 0.073926 0)
(0.403174 0.0974946 0)
(0.388965 0.12374 0)
(0.372029 0.15199 0)
(0.352157 0.180707 0)
(0.328661 0.206864 0)
(0.300189 0.225181 0)
(0.263926 0.226764 0)
(0.216401 0.199698 0)
(0.14734 0.124604 0)
(0.0756957 -0.0277174 0)
(0.00881924 0.0320119 0)
(0.0261529 -0.0202867 0)
(0.0465355 -0.055971 0)
(0.0666671 -0.077789 0)
(0.0863681 -0.0902642 0)
(0.105632 -0.0965589 0)
(0.124513 -0.0988468 0)
(0.143059 -0.0986027 0)
(0.161284 -0.096818 0)
(0.179183 -0.0941519 0)
(0.196737 -0.0910368 0)
(0.213924 -0.0877493 0)
(0.230724 -0.0844587 0)
(0.24712 -0.0812605 0)
(0.263096 -0.0781992 0)
(0.278641 -0.075283 0)
(0.293739 -0.0724952 0)
(0.308377 -0.0698 0)
(0.322534 -0.0671474 0)
(0.336184 -0.0644762 0)
(0.349295 -0.0617148 0)
(0.361822 -0.0587827 0)
(0.37371 -0.0555897 0)
(0.384889 -0.0520346 0)
(0.395278 -0.0480036 0)
(0.404777 -0.0433672 0)
(0.413268 -0.037978 0)
(0.420616 -0.0316693 0)
(0.426667 -0.0242546 0)
(0.43125 -0.0155266 0)
(0.434189 -0.00525671 0)
(0.435306 0.00680838 0)
(0.434437 0.0209418 0)
(0.431436 0.0374217 0)
(0.426197 0.0565051 0)
(0.418657 0.0783862 0)
(0.408807 0.103129 0)
(0.396662 0.130558 0)
(0.38218 0.160058 0)
(0.365098 0.190251 0)
(0.34461 0.218431 0)
(0.31901 0.23981 0)
(0.284812 0.246337 0)
(0.237045 0.226967 0)
(0.165934 0.163014 0)
(0.084157 0.0252396 0)
(0.00916991 0.0236644 0)
(0.0289183 -0.0301074 0)
(0.0513254 -0.0658847 0)
(0.0725757 -0.0873988 0)
(0.0927359 -0.0995314 0)
(0.112008 -0.105542 0)
(0.130624 -0.107607 0)
(0.148755 -0.107181 0)
(0.166497 -0.105233 0)
(0.183893 -0.102407 0)
(0.200953 -0.0991285 0)
(0.217672 -0.0956707 0)
(0.234037 -0.0922018 0)
(0.250033 -0.0888178 0)
(0.265641 -0.0855631 0)
(0.280847 -0.0824463 0)
(0.295631 -0.07945 0)
(0.309975 -0.076537 0)
(0.323855 -0.0736552 0)
(0.337244 -0.07074 0)
(0.350104 -0.0677159 0)
(0.362392 -0.0644975 0)
(0.374052 -0.0609892 0)
(0.385019 -0.0570838 0)
(0.395214 -0.0526607 0)
(0.404546 -0.0475831 0)
(0.412906 -0.0416953 0)
(0.42017 -0.0348226 0)
(0.426201 -0.0267716 0)
(0.430849 -0.0173311 0)
(0.433962 -0.00627167 0)
(0.435396 0.00665563 0)
(0.435021 0.021715 0)
(0.432735 0.0391702 0)
(0.42847 0.0592586 0)
(0.422206 0.0821522 0)
(0.413968 0.1079 0)
(0.403796 0.136336 0)
(0.391649 0.166921 0)
(0.377233 0.198466 0)
(0.359658 0.228637 0)
(0.336954 0.253279 0)
(0.305163 0.265352 0)
(0.257772 0.254992 0)
(0.185106 0.204289 0)
(0.0941213 0.0853053 0)
(0.0096987 0.0146325 0)
(0.0315322 -0.0409371 0)
(0.0556585 -0.0764831 0)
(0.0778648 -0.0973566 0)
(0.0984035 -0.108899 0)
(0.117665 -0.114466 0)
(0.136038 -0.116216 0)
(0.153798 -0.115559 0)
(0.171107 -0.113426 0)
(0.188049 -0.110437 0)
(0.204659 -0.107002 0)
(0.220947 -0.103386 0)
(0.236906 -0.0997532 0)
(0.252522 -0.0961974 0)
(0.267778 -0.0927626 0)
(0.282654 -0.0894567 0)
(0.297129 -0.0862617 0)
(0.311181 -0.0831391 0)
(0.324784 -0.0800349 0)
(0.337907 -0.0768816 0)
(0.350513 -0.0736001 0)
(0.362558 -0.0701009 0)
(0.373986 -0.0662836 0)
(0.384737 -0.0620361 0)
(0.394735 -0.0572322 0)
(0.403898 -0.0517285 0)
(0.412128 -0.0453626 0)
(0.419314 -0.0379531 0)
(0.425332 -0.0293014 0)
(0.430052 -0.0191944 0)
(0.433348 -0.00740495 0)
(0.435105 0.00630927 0)
(0.435229 0.0222016 0)
(0.433653 0.0405209 0)
(0.430347 0.0614853 0)
(0.425326 0.0852454 0)
(0.418646 0.111838 0)
(0.410375 0.141114 0)
(0.400492 0.172619 0)
(0.388706 0.205369 0)
(0.3741 0.237447 0)
(0.354559 0.265429 0)
(0.325849 0.283483 0)
(0.279979 0.283274 0)
(0.207305 0.24791 0)
(0.106976 0.152098 0)
(0.0104077 0.00487727 0)
(0.0340929 -0.052641 0)
(0.0596747 -0.0876572 0)
(0.0826594 -0.107596 0)
(0.103468 -0.118337 0)
(0.122673 -0.123327 0)
(0.140804 -0.124685 0)
(0.158221 -0.123756 0)
(0.175138 -0.121421 0)
(0.191669 -0.118265 0)
(0.20787 -0.114677 0)
(0.223761 -0.110911 0)
(0.239343 -0.107125 0)
(0.254602 -0.103408 0)
(0.269521 -0.0998038 0)
(0.284079 -0.0963182 0)
(0.298252 -0.0929324 0)
(0.312016 -0.089607 0)
(0.325342 -0.086286 0)
(0.338198 -0.0828997 0)
(0.350547 -0.0793658 0)
(0.362344 -0.075591 0)
(0.373537 -0.0714712 0)
(0.384066 -0.06689 0)
(0.393865 -0.0617168 0)
(0.402858 -0.0558031 0)
(0.410957 -0.0489808 0)
(0.418065 -0.0410626 0)
(0.424073 -0.0318465 0)
(0.428871 -0.0211195 0)
(0.432354 -0.00865914 0)
(0.434437 0.00576799 0)
(0.435057 0.0224031 0)
(0.434182 0.04148 0)
(0.431815 0.0631976 0)
(0.428001 0.0876865 0)
(0.422828 0.114971 0)
(0.4164 0.144921 0)
(0.408739 0.177166 0)
(0.399598 0.210935 0)
(0.388118 0.244744 0)
(0.372192 0.275972 0)
(0.347569 0.300187 0)
(0.304965 0.311007 0)
(0.235303 0.293438 0)
(0.124842 0.228075 0)
(0.0112618 -0.00565025 0)
(0.0366194 -0.0651185 0)
(0.0634561 -0.0993101 0)
(0.0870502 -0.118047 0)
(0.108003 -0.127803 0)
(0.127087 -0.132109 0)
(0.14496 -0.133018 0)
(0.162053 -0.131787 0)
(0.178612 -0.129236 0)
(0.194772 -0.125908 0)
(0.210603 -0.122171 0)
(0.226132 -0.118262 0)
(0.241364 -0.11433 0)
(0.25629 -0.110461 0)
(0.27089 -0.106694 0)
(0.285142 -0.103036 0)
(0.299021 -0.0994655 0)
(0.312501 -0.0959424 0)
(0.325552 -0.0924093 0)
(0.338141 -0.0887941 0)
(0.350231 -0.085012 0)
(0.361777 -0.0809666 0)
(0.372731 -0.0765504 0)
(0.383035 -0.071644 0)
(0.39263 -0.0661135 0)
(0.401449 -0.0598065 0)
(0.409415 -0.0525501 0)
(0.416445 -0.0441523 0)
(0.422445 -0.0344086 0)
(0.427321 -0.0231078 0)
(0.430991 -0.0100349 0)
(0.433396 0.00503282 0)
(0.434506 0.0223233 0)
(0.434319 0.0420554 0)
(0.432865 0.0644098 0)
(0.43022 0.0894964 0)
(0.426504 0.117325 0)
(0.421864 0.147778 0)
(0.41639 0.180564 0)
(0.409932 0.215112 0)
(0.40178 0.250365 0)
(0.390034 0.284519 0)
(0.370765 0.314687 0)
(0.333867 0.336917 0)
(0.272195 0.340425 0)
(0.150667 0.318134 0)
(0.012238 -0.0169432 0)
(0.039089 -0.0782756 0)
(0.0670521 -0.11136 0)
(0.0911037 -0.12864 0)
(0.112062 -0.13725 0)
(0.130945 -0.140792 0)
(0.148538 -0.141214 0)
(0.16532 -0.139665 0)
(0.181552 -0.136888 0)
(0.197379 -0.133388 0)
(0.212876 -0.129502 0)
(0.228077 -0.125453 0)
(0.242989 -0.121381 0)
(0.257605 -0.117365 0)
(0.271904 -0.113442 0)
(0.285865 -0.109616 0)
(0.29946 -0.105865 0)
(0.312663 -0.102148 0)
(0.325442 -0.0984056 0)
(0.337765 -0.0945647 0)
(0.349594 -0.090538 0)
(0.360888 -0.0862262 0)
(0.371598 -0.0815194 0)
(0.381674 -0.076296 0)
(0.39106 -0.07042 0)
(0.3997 -0.0637367 0)
(0.40753 -0.0560691 0)
(0.41448 -0.0472213 0)
(0.420469 -0.0369868 0)
(0.425421 -0.0251582 0)
(0.429273 -0.0115297 0)
(0.431994 0.00410802 0)
(0.433582 0.0219692 0)
(0.434064 0.0422584 0)
(0.433496 0.065139 0)
(0.431977 0.0906984 0)
(0.429662 0.118927 0)
(0.426753 0.149708 0)
(0.423426 0.182813 0)
(0.419676 0.217845 0)
(0.415041 0.254125 0)
(0.408046 0.290606 0)
(0.395514 0.325951 0)
(0.367502 0.358996 0)
(0.321834 0.38802 0)
(0.187743 0.421501 0)
(0.0133388 -0.0289522 0)
(0.0414697 -0.0920156 0)
(0.07051 -0.123733 0)
(0.0948738 -0.13931 0)
(0.11568 -0.146626 0)
(0.134268 -0.149346 0)
(0.151555 -0.149263 0)
(0.168039 -0.147389 0)
(0.183976 -0.144387 0)
(0.199507 -0.140712 0)
(0.214709 -0.136679 0)
(0.229616 -0.132493 0)
(0.244239 -0.128284 0)
(0.25857 -0.124126 0)
(0.27259 -0.12005 0)
(0.286275 -0.116059 0)
(0.299599 -0.11213 0)
(0.312532 -0.108221 0)
(0.325045 -0.104272 0)
(0.337105 -0.100208 0)
(0.348675 -0.0959398 0)
(0.359715 -0.0913655 0)
(0.37018 -0.0863736 0)
(0.380022 -0.0808412 0)
(0.389194 -0.074632 0)
(0.39765 -0.0675895 0)
(0.40534 -0.0595343 0)
(0.412205 -0.0502664 0)
(0.41818 -0.0395781 0)
(0.423203 -0.0272669 0)
(0.427231 -0.0131391 0)
(0.430256 0.00299935 0)
(0.432307 0.0213484 0)
(0.433437 0.0420999 0)
(0.433724 0.0654004 0)
(0.433287 0.0913135 0)
(0.432313 0.119801 0)
(0.431063 0.150732 0)
(0.429821 0.183913 0)
(0.428762 0.219073 0)
(0.42775 0.255821 0)
(0.425946 0.293692 0)
(0.421369 0.332585 0)
(0.406155 0.373888 0)
(0.382775 0.428601 0)
(0.243788 0.576604 0)
(0.00622835 0.000658509 0)
(-0.0317274 0.0135603 0)
(-0.106396 0.0171424 0)
(-0.170906 0.0155961 0)
(-0.225201 0.0121496 0)
(-0.263974 0.00783919 0)
(-0.287487 0.00353984 0)
(-0.296827 0.000150977 0)
(-0.293798 -0.00308034 0)
(-0.281309 -0.00558677 0)
(-0.260579 -0.00773351 0)
(-0.232603 -0.00951888 0)
(-0.198247 -0.0109046 0)
(-0.157929 -0.0122202 0)
(-0.111674 -0.0138093 0)
(-0.060362 -0.0150168 0)
(-0.0048466 -0.0158477 0)
(0.0539758 -0.0165076 0)
(0.115002 -0.0167982 0)
(0.177147 -0.0165009 0)
(0.239098 -0.0166411 0)
(0.299436 -0.0170868 0)
(0.356896 -0.0165575 0)
(0.40954 -0.0149238 0)
(0.455154 -0.0126642 0)
(0.491495 -0.00971479 0)
(0.516321 -0.0054922 0)
(0.525259 0.000144138 0)
(0.514715 0.0047922 0)
(0.486424 0.0091556 0)
(0.442772 0.0128481 0)
(0.386611 0.0153194 0)
(0.321422 0.0165803 0)
(0.251059 0.0167739 0)
(0.178967 0.0160179 0)
(0.110319 0.0139167 0)
(0.0461082 0.0108122 0)
(0.00608759 0.00497348 0)
(-0.00781208 0.0103615 0)
(-0.0556967 0.0379851 0)
(-0.131575 0.0434506 0)
(-0.19415 0.0381425 0)
(-0.243392 0.0293108 0)
(-0.276066 0.0194098 0)
(-0.29381 0.01005 0)
(-0.2991 0.00202839 0)
(-0.294333 -0.00459272 0)
(-0.280278 -0.0102299 0)
(-0.258256 -0.0151477 0)
(-0.229233 -0.0195589 0)
(-0.193997 -0.023734 0)
(-0.15269 -0.027755 0)
(-0.105526 -0.0312221 0)
(-0.0533687 -0.0342227 0)
(0.00297379 -0.036701 0)
(0.062465 -0.0385525 0)
(0.124076 -0.0397293 0)
(0.186724 -0.0401385 0)
(0.248766 -0.0393491 0)
(0.309071 -0.0374145 0)
(0.366748 -0.0346425 0)
(0.42002 -0.0307963 0)
(0.466858 -0.0255912 0)
(0.505171 -0.018903 0)
(0.532802 -0.0104543 0)
(0.548367 -0.000251548 0)
(0.551212 0.0105966 0)
(0.538283 0.0211799 0)
(0.50775 0.0306881 0)
(0.459958 0.0383792 0)
(0.396994 0.0438554 0)
(0.322365 0.0469391 0)
(0.240109 0.0475251 0)
(0.156527 0.0448981 0)
(0.0702649 0.0379425 0)
(0.0151816 0.0187491 0)
(-0.0205422 0.0261893 0)
(-0.0757544 0.0651272 0)
(-0.144614 0.0710285 0)
(-0.201789 0.0609561 0)
(-0.246384 0.0456719 0)
(-0.275979 0.0292179 0)
(-0.291786 0.0141076 0)
(-0.295663 0.001174 0)
(-0.289563 -0.00952474 0)
(-0.274716 -0.0187101 0)
(-0.252126 -0.0267256 0)
(-0.222688 -0.033829 0)
(-0.187092 -0.0404466 0)
(-0.145673 -0.0469317 0)
(-0.0987479 -0.0527836 0)
(-0.0469255 -0.0577689 0)
(0.00893813 -0.0617554 0)
(0.0678138 -0.0646576 0)
(0.128674 -0.0663269 0)
(0.190446 -0.0665777 0)
(0.251889 -0.0653094 0)
(0.311897 -0.0628898 0)
(0.369185 -0.0589428 0)
(0.42208 -0.0529742 0)
(0.468784 -0.0447859 0)
(0.507356 -0.0342268 0)
(0.535778 -0.0211949 0)
(0.552593 -0.00596663 0)
(0.556242 0.0113394 0)
(0.544634 0.0291263 0)
(0.516407 0.0460949 0)
(0.471355 0.0609687 0)
(0.410791 0.0725929 0)
(0.337614 0.0802088 0)
(0.255644 0.083337 0)
(0.171046 0.081168 0)
(0.0827081 0.0699719 0)
(0.0266055 0.0371367 0)
(-0.0334656 0.0513151 0)
(-0.0915661 0.0920578 0)
(-0.15522 0.0963402 0)
(-0.207914 0.0817869 0)
(-0.248598 0.0607357 0)
(-0.275318 0.0383221 0)
(-0.288878 0.0178647 0)
(-0.291122 0.000527694 0)
(-0.283847 -0.0141979 0)
(-0.26823 -0.0268217 0)
(-0.245209 -0.0378673 0)
(-0.215562 -0.047686 0)
(-0.179889 -0.0567305 0)
(-0.138622 -0.0654041 0)
(-0.0920972 -0.0733168 0)
(-0.0407738 -0.0801136 0)
(0.0145023 -0.0855216 0)
(0.0727028 -0.0894205 0)
(0.132813 -0.091681 0)
(0.193844 -0.0921577 0)
(0.254783 -0.0908098 0)
(0.314433 -0.0876733 0)
(0.371312 -0.0822305 0)
(0.423844 -0.0740527 0)
(0.470356 -0.062886 0)
(0.509021 -0.0485294 0)
(0.537952 -0.0308954 0)
(0.555473 -0.0101677 0)
(0.559853 0.0129389 0)
(0.549283 0.0373091 0)
(0.522428 0.061325 0)
(0.478838 0.0831104 0)
(0.419484 0.100827 0)
(0.347031 0.113064 0)
(0.265434 0.118829 0)
(0.180886 0.116978 0)
(0.0958879 0.102095 0)
(0.0354597 0.0609863 0)
(-0.0423835 0.0796727 0)
(-0.104031 0.118789 0)
(-0.164227 0.119901 0)
(-0.213298 0.1009 0)
(-0.250576 0.0744732 0)
(-0.274508 0.046396 0)
(-0.28564 0.020767 0)
(-0.285977 -0.000940104 0)
(-0.2774 -0.0192654 0)
(-0.260992 -0.0351357 0)
(-0.237539 -0.0490944 0)
(-0.207759 -0.0615523 0)
(-0.17218 -0.0730333 0)
(-0.131194 -0.0839418 0)
(-0.0850784 -0.0939502 0)
(-0.0342172 -0.102593 0)
(0.0205573 -0.109453 0)
(0.0782028 -0.114368 0)
(0.137732 -0.117242 0)
(0.198236 -0.11795 0)
(0.258764 -0.116369 0)
(0.318056 -0.11234 0)
(0.374617 -0.105379 0)
(0.426937 -0.0950256 0)
(0.473394 -0.0809514 0)
(0.512221 -0.0629134 0)
(0.54159 -0.040835 0)
(0.559736 -0.0149392 0)
(0.564907 0.0140813 0)
(0.555395 0.0450312 0)
(0.529826 0.0760384 0)
(0.487536 0.10476 0)
(0.429152 0.128707 0)
(0.35705 0.145739 0)
(0.275281 0.154218 0)
(0.190069 0.152471 0)
(0.106346 0.134673 0)
(0.0398632 0.0932464 0)
(-0.0489591 0.112122 0)
(-0.114452 0.145703 0)
(-0.172077 0.142205 0)
(-0.218101 0.118584 0)
(-0.252331 0.0869548 0)
(-0.273479 0.0533423 0)
(-0.281886 0.0226713 0)
(-0.279964 -0.00310453 0)
(-0.269859 -0.0248233 0)
(-0.252531 -0.0437428 0)
(-0.228573 -0.0604688 0)
(-0.198664 -0.0754356 0)
(-0.16329 -0.0892526 0)
(-0.1227 -0.102376 0)
(-0.0770255 -0.114488 0)
(-0.0265821 -0.124996 0)
(0.0277847 -0.133308 0)
(0.0849851 -0.139226 0)
(0.144052 -0.142706 0)
(0.204138 -0.143636 0)
(0.264312 -0.141801 0)
(0.323314 -0.13692 0)
(0.379697 -0.12849 0)
(0.431976 -0.116017 0)
(0.47855 -0.0991072 0)
(0.517671 -0.0774771 0)
(0.547524 -0.0510439 0)
(0.56631 -0.0200483 0)
(0.572266 0.0148216 0)
(0.56372 0.0522666 0)
(0.539282 0.09022 0)
(0.498129 0.125952 0)
(0.440559 0.156353 0)
(0.368561 0.178484 0)
(0.286071 0.189918 0)
(0.199271 0.188348 0)
(0.114375 0.168292 0)
(0.0430396 0.124087 0)
(-0.0546671 0.147968 0)
(-0.123893 0.172945 0)
(-0.179107 0.16345 0)
(-0.222281 0.134996 0)
(-0.253643 0.0982356 0)
(-0.271882 0.0590807 0)
(-0.277089 0.0234014 0)
(-0.27238 -0.0061688 0)
(-0.260409 -0.0309559 0)
(-0.241966 -0.0526878 0)
(-0.217387 -0.0720045 0)
(-0.187323 -0.0893103 0)
(-0.152244 -0.105326 0)
(-0.11219 -0.120611 0)
(-0.0670521 -0.134838 0)
(-0.0170396 -0.147236 0)
(0.0369537 -0.157001 0)
(0.0937398 -0.163902 0)
(0.152356 -0.167981 0)
(0.21203 -0.169154 0)
(0.271871 -0.167106 0)
(0.330656 -0.161435 0)
(0.386981 -0.151602 0)
(0.439372 -0.137074 0)
(0.486223 -0.117399 0)
(0.52578 -0.0922456 0)
(0.556208 -0.0615152 0)
(0.575673 -0.0254588 0)
(0.582386 0.0152045 0)
(0.574679 0.0590894 0)
(0.551151 0.103962 0)
(0.510877 0.146768 0)
(0.453886 0.183845 0)
(0.381742 0.211443 0)
(0.298051 0.226236 0)
(0.208833 0.225186 0)
(0.12116 0.203408 0)
(0.0452667 0.156957 0)
(-0.0605267 0.187016 0)
(-0.133306 0.2004 0)
(-0.185482 0.183557 0)
(-0.225551 0.150163 0)
(-0.254027 0.108304 0)
(-0.269063 0.0634639 0)
(-0.270335 0.022691 0)
(-0.262062 -0.01036 0)
(-0.247757 -0.0377865 0)
(-0.227959 -0.0620369 0)
(-0.20262 -0.0837297 0)
(-0.172379 -0.103155 0)
(-0.13772 -0.121192 0)
(-0.0984131 -0.138577 0)
(-0.0539995 -0.154955 0)
(-0.00452365 -0.169287 0)
(0.0490361 -0.180517 0)
(0.105326 -0.188376 0)
(0.163377 -0.193048 0)
(0.222532 -0.194498 0)
(0.281994 -0.192299 0)
(0.340577 -0.185909 0)
(0.396905 -0.17475 0)
(0.449505 -0.158245 0)
(0.496757 -0.135874 0)
(0.536875 -0.107257 0)
(0.567978 -0.0722702 0)
(0.588171 -0.0311744 0)
(0.595615 0.0152668 0)
(0.588613 0.065582 0)
(0.565743 0.117383 0)
(0.526017 0.167337 0)
(0.46927 0.211299 0)
(0.396675 0.244756 0)
(0.311373 0.263433 0)
(0.219071 0.263415 0)
(0.127486 0.240295 0)
(0.046966 0.191991 0)
(-0.0674585 0.229616 0)
(-0.143622 0.227719 0)
(-0.191114 0.202141 0)
(-0.227266 0.16396 0)
(-0.252622 0.117068 0)
(-0.263955 0.066246 0)
(-0.260206 0.0201358 0)
(-0.247242 -0.0160068 0)
(-0.229998 -0.0454809 0)
(-0.208598 -0.0718718 0)
(-0.18238 -0.0956805 0)
(-0.15199 -0.116944 0)
(-0.117972 -0.136767 0)
(-0.0797537 -0.156169 0)
(-0.0363812 -0.174756 0)
(0.0123294 -0.191098 0)
(0.0652709 -0.203817 0)
(0.120842 -0.212589 0)
(0.178054 -0.217841 0)
(0.236443 -0.219621 0)
(0.295357 -0.217353 0)
(0.35365 -0.210339 0)
(0.409949 -0.197952 0)
(0.462779 -0.179564 0)
(0.510499 -0.154578 0)
(0.55127 -0.122554 0)
(0.583135 -0.0833382 0)
(0.604108 -0.0372043 0)
(0.612266 0.0150379 0)
(0.605846 0.0718249 0)
(0.583378 0.130615 0)
(0.543827 0.187819 0)
(0.486896 0.238875 0)
(0.413458 0.27858 0)
(0.326154 0.301718 0)
(0.230264 0.30336 0)
(0.13386 0.279187 0)
(0.0484743 0.228667 0)
(-0.0765027 0.276606 0)
(-0.155797 0.254229 0)
(-0.195512 0.218415 0)
(-0.226217 0.176091 0)
(-0.24798 0.124339 0)
(-0.254873 0.0670577 0)
(-0.24458 0.0151369 0)
(-0.225357 -0.0235683 0)
(-0.204441 -0.0542305 0)
(-0.181272 -0.0822586 0)
(-0.154169 -0.107868 0)
(-0.123783 -0.130607 0)
(-0.0907962 -0.151902 0)
(-0.0542021 -0.173216 0)
(-0.0123756 -0.194081 0)
(0.0351852 -0.21257 0)
(0.0871828 -0.226796 0)
(0.141643 -0.236407 0)
(0.197542 -0.242211 0)
(0.254723 -0.244399 0)
(0.312764 -0.242189 0)
(0.370535 -0.234677 0)
(0.426646 -0.221185 0)
(0.479628 -0.201033 0)
(0.527807 -0.173531 0)
(0.569272 -0.138166 0)
(0.601961 -0.0947477 0)
(0.623765 -0.0435576 0)
(0.632635 0.0145438 0)
(0.626696 0.077895 0)
(0.604393 0.143792 0)
(0.56463 0.208396 0)
(0.507024 0.266769 0)
(0.432246 0.313094 0)
(0.342505 0.341276 0)
(0.242627 0.345265 0)
(0.140683 0.320336 0)
(0.0500142 0.266917 0)
(-0.0890045 0.329238 0)
(-0.170777 0.278763 0)
(-0.197468 0.231039 0)
(-0.220244 0.186063 0)
(-0.237677 0.129837 0)
(-0.239167 0.065405 0)
(-0.220385 0.00686003 0)
(-0.19288 -0.0336152 0)
(-0.167509 -0.0641822 0)
(-0.142647 -0.0931696 0)
(-0.114908 -0.120212 0)
(-0.0849071 -0.143976 0)
(-0.0535911 -0.166332 0)
(-0.019424 -0.189428 0)
(0.0200989 -0.212689 0)
(0.0659389 -0.233525 0)
(0.116529 -0.249282 0)
(0.169299 -0.25961 0)
(0.223167 -0.265917 0)
(0.278464 -0.268629 0)
(0.335105 -0.266657 0)
(0.391954 -0.258809 0)
(0.447571 -0.244371 0)
(0.500497 -0.222611 0)
(0.549033 -0.192724 0)
(0.591173 -0.154107 0)
(0.624717 -0.10652 0)
(0.647396 -0.0502471 0)
(0.656992 0.0138017 0)
(0.651465 0.0838585 0)
(0.629123 0.157043 0)
(0.588779 0.229259 0)
(0.529977 0.295207 0)
(0.453275 0.34852 0)
(0.360565 0.382291 0)
(0.256317 0.389325 0)
(0.148288 0.364 0)
(0.0517565 0.306915 0)
(-0.10669 0.390051 0)
(-0.189082 0.299444 0)
(-0.194342 0.237862 0)
(-0.205527 0.193142 0)
(-0.217578 0.133155 0)
(-0.212583 0.060713 0)
(-0.183289 -0.00562105 0)
(-0.145333 -0.0467157 0)
(-0.114884 -0.075304 0)
(-0.0888458 -0.104371 0)
(-0.0611325 -0.132469 0)
(-0.0322193 -0.156725 0)
(-0.00351916 -0.179633 0)
(0.0270892 -0.204357 0)
(0.0632298 -0.23021 0)
(0.106556 -0.253682 0)
(0.155149 -0.271028 0)
(0.205481 -0.281874 0)
(0.256335 -0.288598 0)
(0.308799 -0.292003 0)
(0.363301 -0.290525 0)
(0.41865 -0.282555 0)
(0.473297 -0.267371 0)
(0.52582 -0.244211 0)
(0.574505 -0.212117 0)
(0.617227 -0.17037 0)
(0.65162 -0.118669 0)
(0.675214 -0.0572871 0)
(0.685569 0.0128173 0)
(0.680425 0.0897652 0)
(0.65789 0.170482 0)
(0.616638 0.250592 0)
(0.556127 0.324433 0)
(0.476857 0.385116 0)
(0.380539 0.424982 0)
(0.271465 0.435717 0)
(0.156942 0.410428 0)
(0.0538611 0.34892 0)
(-0.131673 0.457194 0)
(-0.209903 0.312816 0)
(-0.180498 0.235294 0)
(-0.175356 0.196082 0)
(-0.180506 0.133588 0)
(-0.167964 0.0523354 0)
(-0.127126 -0.0232139 0)
(-0.0776429 -0.0634773 0)
(-0.0420736 -0.0874588 0)
(-0.0159798 -0.115509 0)
(0.0105693 -0.144335 0)
(0.0373953 -0.168525 0)
(0.0622962 -0.191362 0)
(0.0878936 -0.217497 0)
(0.119177 -0.246162 0)
(0.158877 -0.272664 0)
(0.204756 -0.291683 0)
(0.251792 -0.302737 0)
(0.298393 -0.309731 0)
(0.346783 -0.314076 0)
(0.398197 -0.313461 0)
(0.451299 -0.305645 0)
(0.504335 -0.289969 0)
(0.555963 -0.265682 0)
(0.604479 -0.231624 0)
(0.647619 -0.186923 0)
(0.682818 -0.131197 0)
(0.707364 -0.0646953 0)
(0.718539 0.0115838 0)
(0.713796 0.0956426 0)
(0.690977 0.184196 0)
(0.648555 0.272561 0)
(0.585865 0.354686 0)
(0.503371 0.423165 0)
(0.402709 0.469607 0)
(0.288219 0.484624 0)
(0.166866 0.459843 0)
(0.0564965 0.393278 0)
(-0.164543 0.555058 0)
(-0.225179 0.312594 0)
(-0.143924 0.217786 0)
(-0.118322 0.192787 0)
(-0.114156 0.130106 0)
(-0.0929826 0.0396749 0)
(-0.0423919 -0.0467814 0)
(0.0155322 -0.085113 0)
(0.0546521 -0.101361 0)
(0.0790631 -0.126741 0)
(0.1029 -0.155903 0)
(0.126549 -0.179502 0)
(0.146534 -0.201568 0)
(0.165625 -0.228743 0)
(0.190207 -0.260263 0)
(0.224608 -0.290125 0)