/*--------------------------------*- C++ -*----------------------------------*\
  =========                 |
  \\      /  F ield         | OpenFOAM: The Open Source CFD Toolbox
   \\    /   O peration     | Website:  https://openfoam.org
    \\  /    A nd           | Version:  7
     \\/     M anipulation  |
\*---------------------------------------------------------------------------*/
FoamFile
{
    version     2.0;
    format      ascii;
    class       volScalarField;
    location    "0.5";
    object      alpha.water;
}
// * * * * * * * * * * * * * * * * * * * * * * * * * * * * * * * * * * * * * //

dimensions      [0 0 0 0 0 0 0];

internalField   nonuniform List<scalar> 
9072
(
1
1
1
1
1
1
1
1
1
1
1
1
1
1
1
1
1
1
1
1
1
1
1
1
1
1
1
1
1
1
1
1
1
1
1
1
1
1
1
1
0.995149
0.985473
0.999423
0.999423
0.999423
0.999421
1
1
1
1
1
1
1
1
1
1
1
1
1
1
1
1
1
1
1
1
1
1
1
1
1
1
1
1
1
1
1
1
1
1
1
1
1
1
1
1
0.998847
0.983699
0.999421
0.999423
0.999421
0.999419
1
1
1
1
1
1
1
1
1
1
1
1
1
1
1
1
1
1
1
1
1
1
1
1
1
1
1
1
1
1
1
1
1
1
1
1
1
1
1
1
0.999962
0.983705
0.999403
0.99942
0.982713
0.989588
1
1
1
1
1
1
1
1
1
1
1
1
1
1
1
1
1
1
1
1
1
1
1
1
1
1
1
1
1
1
1
1
1
1
1
1
1
1
1
1
1
0.992481
0.999395
0.953636
0.935205
0.970829
1
1
1
1
1
1
1
1
1
1
1
1
1
1
1
1
1
1
1
1
1
1
1
1
1
1
1
1
1
1
1
1
1
1
1
1
1
1
1
1
1
1
0.951672
0.935214
0.93523
0.986821
1
1
1
1
1
1
1
1
1
1
1
1
1
1
1
1
1
1
1
1
1
1
1
1
1
1
1
1
1
1
1
1
1
1
1
1
1
1
1
1
1
1
0.973736
0.935261
0.935356
0.991208
1
1
1
1
1
1
1
1
1
1
1
1
1
1
1
1
1
1
1
1
1
1
1
1
1
1
1
1
1
1
1
1
1
1
1
1
1
1
1
1
1
1
1
0.939447
0.935321
0.99116
1
1
1
1
1
1
1
1
1
1
1
1
1
1
1
1
1
1
1
1
1
1
1
1
1
1
1
1
1
1
1
1
1
1
1
1
1
1
1
1
1
1
1
0.981116
0.959171
0.996878
1
1
1
1
1
1
1
1
1
1
1
1
1
1
1
1
1
1
1
1
1
1
1
1
1
1
1
1
1
1
1
1
1
1
1
1
1
1
1
1
1
1
1
0.999999
0.999389
0.999969
1
1
1
1
1
1
1
1
1
1
1
1
1
1
1
1
1
1
1
1
1
1
1
1
1
1
1
1
1
1
1
1
1
1
1
1
1
1
1
1
1
1
1
1
1
0.999969
1
1
1
1
1
1
1
1
1
1
1
1
1
1
1
1
1
1
1
1
1
1
1
1
1
1
1
1
1
1
1
1
1
1
1
1
1
1
1
1
1
1
1
1
1
0.99995
1
1
1
1
1
1
1
1
1
1
1
1
1
1
1
1
1
1
1
1
1
1
1
1
1
1
1
1
1
1
1
1
1
1
1
1
1
1
1
1
1
1
1
1
1
0.99995
1
1
1
1
1
1
1
1
1
1
1
1
1
1
1
1
1
1
1
1
1
1
1
1
1
1
1
1
1
1
1
1
1
1
1
1
1
1
1
1
1
1
1
1
1
0.99995
1
1
1
1
1
1
1
1
1
1
1
1
1
1
1
1
1
1
1
1
1
1
1
1
1
1
1
1
1
1
1
1
1
1
1
1
1
1
1
1
1
1
1
1
1
0.999953
1
1
1
1
1
1
1
1
1
1
1
1
1
1
1
1
1
1
1
1
1
1
1
1
1
1
1
1
1
1
1
1
1
1
1
1
1
1
1
1
1
1
1
1
1
0.999953
1
1
1
1
1
1
1
1
1
1
1
1
1
1
1
1
1
1
1
1
1
1
1
1
1
1
1
1
1
1
1
1
1
1
1
1
1
1
1
1
1
1
1
1
1
0.999953
3.40137e-33
3.40137e-33
1.08836e-32
3.90054e-31
5.33307e-30
3.45694e-29
1.38055e-28
4.31744e-28
1.2553e-27
3.52354e-27
8.94063e-27
1.97784e-26
3.97121e-26
7.76578e-26
1.55002e-25
3.16218e-25
6.47244e-25
1.32188e-24
2.71586e-24
5.68788e-24
1.21376e-23
2.58213e-23
5.53877e-23
1.2121e-22
2.71995e-22
6.28666e-22
1.50074e-21
3.70303e-21
9.42827e-21
2.46464e-20
6.59225e-20
1.81768e-19
5.10147e-19
1.46145e-18
3.12254e-18
3.03543e-18
1.53743e-19
1.16627e-20
7.93385e-33
1.86853e-32
2.04065e-30
6.20709e-29
6.58026e-28
3.54398e-27
1.37582e-26
4.65649e-26
1.3277e-25
2.97753e-25
5.53213e-25
9.72757e-25
1.88651e-24
4.37905e-24
1.11034e-23
2.67684e-23
5.83374e-23
1.17906e-22
2.33394e-22
4.67697e-22
9.38696e-22
1.8825e-21
3.7919e-21
7.70641e-21
1.59327e-20
3.38825e-20
7.49049e-20
1.73456e-19
4.21603e-19
1.06994e-18
2.79934e-18
7.36309e-18
1.83568e-17
3.68336e-17
4.91458e-17
4.60469e-17
1.91475e-17
3.15148e-20
4.743e-32
1.69998e-31
5.53212e-29
2.35492e-27
3.11343e-26
1.9906e-25
8.65626e-25
3.12536e-24
9.23556e-24
2.08223e-23
3.71948e-23
5.97167e-23
1.01629e-22
2.15105e-22
5.52449e-22
1.41971e-21
3.25447e-21
6.66936e-21
1.29148e-20
2.46106e-20
4.60749e-20
8.59599e-20
1.60675e-19
3.00878e-19
5.67969e-19
1.09457e-18
2.18725e-18
4.59954e-18
1.02831e-17
2.44833e-17
6.15348e-17
1.59485e-16
4.02439e-16
8.64072e-16
1.30639e-15
1.38603e-15
6.98838e-16
4.00462e-18
1.57892e-31
3.93397e-30
3.44508e-28
4.01558e-26
7.50401e-25
6.09e-24
3.16098e-23
1.29955e-22
4.2056e-22
9.95107e-22
1.77335e-21
2.67961e-21
3.99806e-21
7.124e-21
1.69814e-20
4.55917e-20
1.1154e-19
2.36662e-19
4.56904e-19
8.4099e-19
1.48991e-18
2.61169e-18
4.57355e-18
7.98482e-18
1.39299e-17
2.45465e-17
4.44559e-17
8.44043e-17
1.71059e-16
3.74233e-16
8.82956e-16
2.20456e-15
5.51424e-15
1.21613e-14
1.96966e-14
2.23259e-14
1.3743e-14
1.6528e-16
3.9599e-30
7.89066e-29
4.01969e-27
3.13981e-25
1.14349e-23
1.24764e-22
8.09252e-22
3.94853e-21
1.44524e-20
3.68155e-20
6.70706e-20
9.80871e-20
1.32102e-19
1.92285e-19
3.75385e-19
9.91121e-19
2.6235e-18
5.9148e-18
1.16427e-17
2.10848e-17
3.58414e-17
5.94598e-17
9.8009e-17
1.60599e-16
2.61368e-16
4.25242e-16
7.02793e-16
1.206e-15
2.19993e-15
4.35338e-15
9.43963e-15
2.22049e-14
5.3992e-14
1.20261e-13
2.04069e-13
2.42671e-13
1.74547e-13
3.87548e-15
7.73262e-29
1.23601e-27
5.32545e-26
1.78606e-24
1.05652e-22
1.92093e-21
1.67805e-20
1.01018e-19
4.27611e-19
1.20228e-18
2.30253e-18
3.34196e-18
4.17583e-18
5.05678e-18
7.10157e-18
1.56338e-17
4.45561e-17
1.09233e-16
2.24487e-16
4.08612e-16
6.78862e-16
1.07881e-15
1.68465e-15
2.60412e-15
3.98282e-15
6.03991e-15
9.19044e-15
1.43268e-14
2.34785e-14
4.15625e-14
8.12179e-14
1.75792e-13
4.05649e-13
8.9317e-13
1.55942e-12
1.9235e-12
1.57193e-12
5.88114e-14
1.14886e-27
1.93417e-26
9.02538e-25
2.19771e-23
5.43966e-22
2.7849e-20
3.65499e-19
2.6278e-18
1.25934e-17
4.09382e-17
9.15408e-17
1.49385e-16
1.94953e-16
2.24118e-16
2.46928e-16
3.03279e-16
6.28706e-16
1.57541e-15
3.39049e-15
6.27745e-15
1.04063e-14
1.61843e-14
2.43316e-14
3.58643e-14
5.19895e-14
7.41629e-14
1.04865e-13
1.49357e-13
2.19579e-13
3.44412e-13
5.94778e-13
1.15329e-12
2.45143e-12
5.17634e-12
9.06517e-12
1.14328e-11
1.03689e-11
6.28824e-13
1.78142e-26
1.32302e-25
1.70911e-23
3.91887e-22
7.59016e-21
4.77662e-19
8.83203e-18
6.47514e-17
3.14726e-16
1.14682e-15
3.19153e-15
6.74495e-15
1.09167e-14
1.40337e-14
1.54733e-14
1.58124e-14
1.54267e-14
2.10587e-14
4.05209e-14
7.68112e-14
1.28864e-13
1.98781e-13
2.9153e-13
4.13677e-13
5.71254e-13
7.68438e-13
1.01196e-12
1.32212e-12
1.75307e-12
2.44139e-12
3.70696e-12
6.32131e-12
1.20573e-11
2.36207e-11
4.00215e-11
5.02271e-11
4.8328e-11
4.91218e-12
3.23583e-25
2.91568e-24
2.22179e-22
6.11617e-21
1.43477e-19
7.5407e-18
1.43433e-16
9.78871e-16
4.52157e-15
1.66463e-14
4.94451e-14
1.13935e-13
1.98951e-13
2.67764e-13
2.95544e-13
2.83646e-13
2.39907e-13
2.46204e-13
3.92226e-13
7.36311e-13
1.2285e-12
1.83045e-12
2.55046e-12
3.41005e-12
4.42024e-12
5.54915e-12
6.75785e-12
8.14972e-12
1.0007e-11
1.27382e-11
1.75208e-11
2.67211e-11
4.58304e-11
8.22793e-11
1.30707e-10
1.55191e-10
1.30071e-10
2.66904e-11
4.33003e-24
2.53545e-23
1.06372e-21
5.21766e-20
1.47688e-18
9.04178e-17
1.41894e-15
8.68266e-15
3.68428e-14
1.27635e-13
3.61573e-13
7.94953e-13
1.32039e-12
1.70322e-12
1.83786e-12
1.69345e-12
1.48129e-12
1.60585e-12
2.73487e-12
5.07981e-12
8.09828e-12
1.11878e-11
1.41218e-11
1.70399e-11
2.01391e-11
2.34055e-11
2.65304e-11
3.00552e-11
3.54101e-11
4.28688e-11
5.54825e-11
7.89431e-11
1.25393e-10
2.09706e-10
3.00478e-10
3.10439e-10
2.12998e-10
8.43391e-11
3.63555e-23
-2.58439e-22
-3.25609e-21
2.81865e-19
1.05569e-17
7.18315e-16
8.90533e-15
4.8199e-14
1.84772e-13
5.83703e-13
1.50399e-12
2.98617e-12
4.50345e-12
5.40832e-12
5.65881e-12
5.33044e-12
5.13029e-12
6.53318e-12
1.1659e-11
2.08135e-11
3.19367e-11
4.18402e-11
4.83888e-11
5.22149e-11
5.50726e-11
5.92346e-11
6.4595e-11
6.94187e-11
7.42225e-11
8.76489e-11
1.0984e-10
1.51606e-10
2.31977e-10
3.67417e-10
4.92406e-10
5.03818e-10
3.40529e-10
1.66153e-10
1.963e-22
6.31235e-22
1.83896e-20
1.11377e-18
5.72119e-17
3.87315e-15
3.95628e-14
1.92869e-13
6.65679e-13
1.85088e-12
4.12338e-12
7.11664e-12
9.63797e-12
1.09785e-11
1.15059e-11
1.18918e-11
1.39723e-11
2.00674e-11
3.03458e-11
4.633e-11
6.83703e-11
9.17989e-11
1.07836e-10
1.12409e-10
1.08588e-10
1.06072e-10
1.11986e-10
1.12175e-10
1.04291e-10
1.24691e-10
1.57219e-10
2.17462e-10
3.29742e-10
5.08077e-10
7.83243e-10
1.16807e-09
1.16506e-09
3.44013e-10
7.93038e-22
1.39806e-21
7.02039e-20
3.8972e-18
3.4807e-16
1.56616e-14
1.35951e-13
6.01123e-13
1.86705e-12
4.52512e-12
8.54439e-12
1.25266e-11
1.51834e-11
1.69601e-11
1.99214e-11
2.94854e-11
4.67403e-11
6.312e-11
7.2568e-11
7.80333e-11
8.73772e-11
1.19474e-10
1.58063e-10
1.82341e-10
1.88032e-10
1.6076e-10
1.61531e-10
1.79167e-10
2.30455e-10
2.76521e-10
3.35865e-10
4.32873e-10
6.10521e-10
9.89541e-10
1.82102e-09
3.40165e-09
4.59946e-09
1.11663e-09
2.26942e-21
-4.18602e-20
-1.53576e-18
1.54693e-17
2.47994e-15
6.16183e-14
4.21497e-13
1.55605e-12
3.99695e-12
7.86339e-12
1.22356e-11
1.58236e-11
1.82924e-11
2.06388e-11
2.90328e-11
6.58079e-11
1.65168e-10
2.94279e-10
3.62997e-10
3.65028e-10
2.199e-10
1.19514e-10
1.42334e-10
2.20941e-10
2.96376e-10
2.5847e-10
3.96286e-10
7.25156e-10
9.59333e-10
1.06635e-09
1.1851e-09
1.36192e-09
1.69704e-09
2.61857e-09
5.16303e-09
1.08923e-08
1.64322e-08
4.50045e-09
4.37757e-21
8.11004e-21
2.78638e-19
6.54402e-17
1.01018e-14
1.57911e-13
8.53234e-13
2.54809e-12
5.22363e-12
8.53749e-12
1.22353e-11
1.56063e-11
1.86951e-11
2.44516e-11
4.36938e-11
1.00113e-10
2.23301e-10
5.33087e-10
1.53067e-09
3.36242e-09
4.32109e-09
4.23228e-09
1.3968e-09
2.34264e-10
4.34503e-10
8.97984e-10
2.39918e-09
5.24694e-09
6.83736e-09
6.82178e-09
6.74466e-09
6.81504e-09
7.11445e-09
9.38444e-09
1.74792e-08
3.84339e-08
5.94497e-08
2.21387e-08
-1.43144e-24
-1.04733e-22
-7.05279e-21
8.54749e-16
5.07144e-14
3.85968e-13
1.30642e-12
2.87473e-12
5.10873e-12
8.00434e-12
1.11391e-11
1.43834e-11
2.12936e-11
5.31331e-11
1.31945e-10
2.77801e-10
4.377e-10
4.87268e-10
5.39919e-10
1.04071e-09
1.22545e-08
2.6084e-08
2.62916e-08
1.02644e-08
1.46588e-09
5.42826e-09
1.63173e-08
3.50122e-08
4.73053e-08
4.24139e-08
3.54529e-08
3.21854e-08
2.80976e-08
2.94998e-08
4.84996e-08
1.09278e-07
1.78365e-07
9.06011e-08
1
0.999998
0.999997
0.999997
0.999995
0.999995
0.999996
0.999996
0.999997
0.999998
0.999998
0.999999
0.999999
0.999999
1
1
1
1
1
1
1
1
1
1
1
1
1
1
1
1
1
1
1
1
1
1
1
1
1
1
1
1
1
1
1
0.999978
0.999975
0.998611
0.998697
0.999311
0.999861
0.999916
0.999924
0.999935
0.999946
0.999957
0.999967
0.999976
0.999983
0.999989
0.999993
0.999996
0.999998
0.999999
0.999999
1
1
1
1
1
1
1
1
1
1
1
1
1
1
1
1
1
1
1
1
1
1
1
1
1
1
1
0.604782
0.535364
0.539143
0.558084
0.590387
0.634027
0.683553
0.734036
0.780355
0.82222
0.860312
0.894408
0.923787
0.94816
0.967512
0.982128
0.992262
0.998193
0.999957
0.999968
0.999977
0.999985
0.999991
0.999995
0.999998
1
1
1
1
1
1
1
1
1
1
1
1
1
1
1
1
1
1
1
1
1
-1.00235e-14
-4.25225e-15
-1.28846e-15
-9.80732e-12
5.75556e-22
0.00679535
0.0237921
0.0459222
0.0718154
0.101575
0.136092
0.175923
0.220976
0.270975
0.325942
0.386213
0.452222
0.524264
0.601998
0.668849
0.731478
0.792539
0.850492
0.903098
0.947425
0.980069
0.997233
0.999997
1
1
1
1
1
1
1
1
1
1
1
1
1
1
1
1
1
1
-7.75832e-14
-6.36246e-14
-2.80567e-14
-2.17229e-10
-3.77833e-10
-3.91954e-10
-3.17129e-10
-2.27487e-10
-1.67694e-10
-1.66129e-10
-5.0035e-10
-1.44774e-09
-2.88806e-09
-4.05217e-09
-4.56998e-09
-4.01959e-09
-2.80257e-09
-1.44679e-09
5.47718e-21
0.0162847
0.0428142
0.077103
0.122304
0.182339
0.262947
0.373013
0.518709
0.677905
0.816474
0.930253
0.999664
1
1
1
1
1
1
1
1
1
1
1
1
1
1
1
-6.47918e-14
-6.43131e-14
-2.20133e-14
-3.78807e-10
-5.7867e-10
-5.71988e-10
-4.64524e-10
-3.47033e-10
-2.83124e-10
-3.25818e-10
-1.09355e-09
-3.47525e-09
-7.71644e-09
-1.27265e-08
-1.68549e-08
-1.8937e-08
-1.8892e-08
-1.73627e-08
-1.515e-08
-1.28262e-08
-1.06348e-08
-8.62105e-09
-6.74136e-09
-4.99519e-09
-3.35448e-09
-1.85735e-09
-5.49841e-10
0.0116224
0.0612908
0.150607
0.310749
0.588037
0.90569
1
1
1
1
1
1
1
1
1
1
1
1
1
-3.3698e-14
-2.91639e-14
-8.64995e-15
-2.96958e-10
-4.28781e-10
-4.12231e-10
-3.32583e-10
-2.56213e-10
-2.33398e-10
-3.18527e-10
-9.22851e-10
-2.97255e-09
-6.96451e-09
-1.21336e-08
-1.69548e-08
-2.0234e-08
-2.16586e-08
-2.16053e-08
-2.06733e-08
-1.93423e-08
-1.78604e-08
-1.62903e-08
-1.46066e-08
-1.278e-08
-1.08173e-08
-8.77207e-09
-6.75452e-09
-4.91697e-09
-3.32347e-09
-1.00249e-08
1.42753e-06
0.0149616
0.083504
0.217779
0.511313
0.950391
1
1
1
1
1
1
1
1
1
1
-1.17498e-14
-7.13906e-15
-1.99677e-15
-1.1269e-10
-1.65446e-10
-1.5999e-10
-1.30675e-10
-1.07891e-10
-1.19887e-10
-2.06145e-10
-4.30143e-10
-1.23286e-09
-2.97867e-09
-5.51843e-09
-8.33044e-09
-1.09116e-08
-1.30053e-08
-1.45838e-08
-1.57187e-08
-1.64739e-08
-1.68654e-08
-1.68708e-08
-1.64615e-08
-1.56308e-08
-1.44062e-08
-1.28514e-08
-1.10648e-08
-9.16778e-09
-7.26192e-09
-7.17182e-10
6.57232e-09
2.84008e-07
2.09919e-06
8.84125e-06
0.00713171
0.150713
0.467227
0.788063
0.999998
1
1
1
1
1
1
1
-5.71065e-15
-2.59719e-15
-7.59807e-16
-1.76369e-11
-2.71885e-11
-2.69237e-11
-2.28787e-11
-2.37183e-11
-4.10527e-11
-9.60742e-11
-2.27097e-10
-4.90866e-10
-9.53719e-10
-1.6744e-09
-2.6847e-09
-3.97504e-09
-5.48984e-09
-7.13378e-09
-8.7868e-09
-1.03236e-08
-1.16319e-08
-1.26242e-08
-1.32446e-08
-1.34685e-08
-1.32985e-08
-1.27584e-08
-1.18892e-08
-1.07483e-08
-9.39041e-09
-3.15009e-10
-2.07092e-12
-8.03188e-09
1.92611e-09
9.69824e-08
8.36376e-07
1.34008e-05
0.00464082
0.0616526
0.243167
0.597454
0.958298
1
1
1
1
1
-2.58575e-15
-8.85032e-16
-3.05193e-16
-2.31345e-16
-4.60236e-16
-1.10463e-15
-3.44804e-13
-2.87581e-12
-1.14074e-11
-3.45518e-11
-8.94813e-11
-2.03494e-10
-4.11236e-10
-7.47743e-10
-1.23945e-09
-1.89615e-09
-2.70643e-09
-3.63772e-09
-4.64084e-09
-5.65745e-09
-6.62842e-09
-7.50055e-09
-8.23101e-09
-8.78893e-09
-9.15443e-09
-9.3163e-09
-9.27044e-09
-9.0213e-09
-8.57795e-09
-7.62618e-09
-3.32885e-09
-1.15742e-11
9.96065e-11
-2.68592e-09
7.84131e-10
1.9339e-07
1.30999e-06
9.72233e-06
4.11654e-05
0.022164
0.17113
0.452896
0.785331
0.999997
1
1
-7.88296e-16
-2.16405e-16
-8.66362e-17
-8.85949e-17
-2.46466e-16
-6.9312e-16
-8.78441e-14
-7.49531e-13
-3.05398e-12
-9.65129e-12
-2.63001e-11
-6.28598e-11
-1.32865e-10
-2.51509e-10
-4.3259e-10
-6.85358e-10
-1.01219e-09
-1.40771e-09
-1.85943e-09
-2.34975e-09
-2.85849e-09
-3.36543e-09
-3.85214e-09
-4.30293e-09
-4.70487e-09
-5.04708e-09
-5.32021e-09
-5.51686e-09
-5.64295e-09
-5.66404e-09
-5.23881e-09
-3.71289e-09
-4.9188e-13
-1.80902e-11
8.52758e-11
3.49703e-09
-2.47022e-08
1.09062e-07
8.19493e-07
6.83875e-06
4.19161e-05
0.00131644
0.0649519
0.273466
0.574431
0.8186
-1.29288e-16
-3.41489e-17
-1.74041e-17
-3.53777e-17
-1.39254e-16
-4.46951e-16
-1.63724e-14
-1.3705e-13
-5.69365e-13
-1.90595e-12
-5.58693e-12
-1.42918e-11
-3.19943e-11
-6.35742e-11
-1.14076e-10
-1.87832e-10
-2.87704e-10
-4.14631e-10
-5.67573e-10
-7.4382e-10
-9.39541e-10
-1.1504e-09
-1.37208e-09
-1.60059e-09
-1.83236e-09
-2.06403e-09
-2.29235e-09
-2.51404e-09
-2.72579e-09
-2.97943e-09
-3.18282e-09
-3.20045e-09
-2.6572e-09
-1.67072e-09
-1.10402e-12
4.34934e-12
1.76254e-10
3.35367e-09
8.42609e-09
-7.20861e-08
7.27367e-07
2.89722e-06
2.30935e-05
8.84348e-05
0.0146172
0.0864943
3.10077e-18
-1.14179e-18
-3.0756e-18
-1.74751e-17
-8.4918e-17
-2.99225e-16
-2.59543e-15
-1.76956e-14
-7.17191e-14
-2.59514e-13
-8.48309e-13
-2.38509e-12
-5.75003e-12
-1.21232e-11
-2.28689e-11
-3.93728e-11
-6.28782e-11
-9.43632e-11
-1.34485e-10
-1.83594e-10
-2.41806e-10
-3.09102e-10
-3.85423e-10
-4.70739e-10
-5.6507e-10
-6.68463e-10
-7.80936e-10
-9.02429e-10
-1.0327e-09
-1.18747e-09
-1.38977e-09
-1.59708e-09
-1.73221e-09
-1.71463e-09
-1.30973e-09
-1.96113e-13
-2.21283e-12
4.33954e-11
1.48102e-10
2.54152e-09
2.08193e-08
-4.81807e-08
2.57636e-07
2.01368e-06
8.35475e-06
3.21943e-05
8.03126e-18
1.01706e-18
-1.09625e-18
-1.03871e-17
-5.45469e-17
-2.04788e-16
-7.51707e-16
-2.76147e-15
-8.81572e-15
-3.07843e-14
-1.07227e-13
-3.25925e-13
-8.43163e-13
-1.89259e-12
-3.78094e-12
-6.87277e-12
-1.15694e-11
-1.82882e-11
-2.74478e-11
-3.94612e-11
-5.47385e-11
-7.36958e-11
-9.67667e-11
-1.24413e-10
-1.57129e-10
-1.95439e-10
-2.39886e-10
-2.91013e-10
-3.49332e-10
-4.15258e-10
-5.10582e-10
-6.32635e-10
-7.70503e-10
-9.00747e-10
-9.58636e-10
-7.81795e-10
-4.7957e-10
-2.45181e-13
-1.66955e-12
4.47076e-11
4.18777e-10
1.43296e-09
1.26969e-08
5.12084e-08
2.30334e-07
7.1471e-07
2.11107e-18
5.07036e-20
-7.84752e-19
-6.62966e-18
-3.56863e-17
-1.40055e-16
-4.70236e-16
-1.4116e-15
-3.8112e-15
-9.91475e-15
-2.60278e-14
-6.74703e-14
-1.6496e-13
-3.70671e-13
-7.62404e-13
-1.44514e-12
-2.55021e-12
-4.23311e-12
-6.67101e-12
-1.00613e-11
-1.46216e-11
-2.05914e-11
-2.82342e-11
-3.78407e-11
-4.97292e-11
-6.42458e-11
-8.17606e-11
-1.02662e-10
-1.27345e-10
-1.56193e-10
-1.89722e-10
-2.40832e-10
-3.06733e-10
-3.85553e-10
-4.66948e-10
-5.18179e-10
-5.22698e-10
-4.25891e-10
-1.9447e-10
-2.58805e-13
-1.60103e-12
2.67866e-11
2.93569e-10
1.30071e-09
5.78447e-09
2.38026e-08
1.33506e-20
-4.32598e-20
-5.41642e-19
-4.25295e-18
-2.31633e-17
-9.38061e-17
-3.23048e-16
-9.80653e-16
-2.64145e-15
-6.38048e-15
-1.4493e-14
-3.22413e-14
-7.0346e-14
-1.47458e-13
-2.91965e-13
-5.42931e-13
-9.50402e-13
-1.57558e-12
-2.49138e-12
-3.7836e-12
-5.55281e-12
-7.91644e-12
-1.10107e-11
-1.49914e-11
-2.00342e-11
-2.63327e-11
-3.40956e-11
-4.3543e-11
-5.49009e-11
-6.83942e-11
-8.42373e-11
-1.0294e-10
-1.30192e-10
-1.65116e-10
-2.07468e-10
-2.53415e-10
-2.96845e-10
-3.23558e-10
-3.0893e-10
-2.3904e-10
-6.26571e-12
-1.22235e-13
-1.3732e-12
2.44376e-11
1.20912e-10
5.27848e-10
-2.83205e-21
-3.53591e-20
-3.47749e-19
-2.67077e-18
-1.46452e-17
-6.05989e-17
-2.11802e-16
-6.44661e-16
-1.72423e-15
-4.09304e-15
-9.00799e-15
-1.91391e-14
-3.95843e-14
-7.87182e-14
-1.48704e-13
-2.65789e-13
-4.50697e-13
-7.29426e-13
-1.13462e-12
-1.70745e-12
-2.49958e-12
-3.57484e-12
-5.01e-12
-6.89448e-12
-9.32889e-12
-1.24226e-11
-1.62909e-11
-2.10517e-11
-2.68229e-11
-3.37187e-11
-4.18464e-11
-5.13029e-11
-6.227e-11
-7.74279e-11
-9.64901e-11
-1.19381e-10
-1.45444e-10
-1.72496e-10
-1.94889e-10
-2.04706e-10
-1.7908e-10
-1.4372e-10
-7.00902e-12
-9.42628e-14
-5.74998e-13
7.65542e-12
-2.65367e-21
-2.17332e-20
-2.13277e-19
-1.61973e-18
-8.90362e-18
-3.73401e-17
-1.31365e-16
-3.98319e-16
-1.05311e-15
-2.4601e-15
-5.29314e-15
-1.0888e-14
-2.16195e-14
-4.11541e-14
-7.4606e-14
-1.28776e-13
-2.1269e-13
-3.38569e-13
-5.23194e-13
-7.89422e-13
-1.16746e-12
-1.69551e-12
-2.41943e-12
-3.39152e-12
-4.66843e-12
-6.3088e-12
-8.3708e-12
-1.09101e-11
-1.39783e-11
-1.76218e-11
-2.18808e-11
-2.6789e-11
-3.2372e-11
-3.86464e-11
-4.67983e-11
-5.71126e-11
-6.93184e-11
-8.32844e-11
-9.8305e-11
-1.12778e-10
-1.22806e-10
-1.27003e-10
-1.12718e-10
-8.96742e-11
-4.40206e-11
-1.55523e-13
-1.68683e-21
-1.25346e-20
-1.24923e-19
-9.39259e-19
-5.15593e-18
-2.17692e-17
-7.65834e-17
-2.30172e-16
-5.99358e-16
-1.374e-15
-2.88569e-15
-5.74853e-15
-1.09832e-14
-2.00929e-14
-3.51689e-14
-5.91558e-14
-9.63812e-14
-1.53364e-13
-2.39779e-13
-3.6934e-13
-5.60281e-13
-8.352e-13
-1.22018e-12
-1.74329e-12
-2.43275e-12
-3.31515e-12
-4.41396e-12
-5.74855e-12
-7.33377e-12
-9.17991e-12
-1.1293e-11
-1.36751e-11
-1.63244e-11
-1.92356e-11
-2.2399e-11
-2.61202e-11
-3.10232e-11
-3.69029e-11
-4.36681e-11
-5.11228e-11
-5.87612e-11
-6.58716e-11
-7.06086e-11
-7.19668e-11
-6.82216e-11
-5.75359e-11
-9.44092e-22
-6.90117e-21
-6.94951e-20
-5.16856e-19
-2.82382e-18
-1.19353e-17
-4.17642e-17
-1.2392e-16
-3.16858e-16
-7.11162e-16
-1.45575e-15
-2.80861e-15
-5.1749e-15
-9.14473e-15
-1.55936e-14
-2.59141e-14
-4.24119e-14
-6.88287e-14
-1.10871e-13
-1.76562e-13
-2.7623e-13
-4.22019e-13
-6.2697e-13
-9.03829e-13
-1.26384e-12
-1.71575e-12
-2.26523e-12
-2.9147e-12
-3.66352e-12
-4.50845e-12
-5.44422e-12
-6.46404e-12
-7.56004e-12
-8.72349e-12
-9.94493e-12
-1.12141e-11
-1.25196e-11
-1.42445e-11
-1.65359e-11
-1.92282e-11
-2.22811e-11
-2.55783e-11
-2.88673e-11
-3.17985e-11
-3.39513e-11
-3.47993e-11
-4.90137e-22
-3.61733e-21
-3.65237e-20
-2.68308e-19
-1.45458e-18
-6.12467e-18
-2.12241e-17
-6.19656e-17
-1.55194e-16
-3.40345e-16
-6.78238e-16
-1.26797e-15
-2.26076e-15
-3.88928e-15
-6.54863e-15
-1.09564e-14
-1.83913e-14
-3.09678e-14
-5.1857e-14
-8.53441e-14
-1.3663e-13
-2.11361e-13
-3.14961e-13
-4.51917e-13
-6.25186e-13
-8.35843e-13
-1.08302e-12
-1.36412e-12
-1.67518e-12
-2.01133e-12
-2.36725e-12
-2.73754e-12
-3.11694e-12
-3.50053e-12
-3.88372e-12
-4.26226e-12
-4.63216e-12
-4.98953e-12
-5.33097e-12
-5.87275e-12
-6.63773e-12
-7.57036e-12
-8.63031e-12
-9.76033e-12
-1.0877e-11
-1.1872e-11
-2.39707e-22
-1.79593e-21
-1.80511e-20
-1.30756e-19
-7.01443e-19
-2.92988e-18
-1.00181e-17
-2.87008e-17
-7.02598e-17
-1.50309e-16
-2.91408e-16
-5.28712e-16
-9.17357e-16
-1.5544e-15
-2.63149e-15
-4.52581e-15
-7.92009e-15
-1.39194e-14
-2.41128e-14
-4.05223e-14
-6.54101e-14
-1.00962e-13
-1.48915e-13
-2.10237e-13
-2.84923e-13
-3.71971e-13
-4.69515e-13
-5.75068e-13
-6.85813e-13
-7.98882e-13
-9.11576e-13
-1.02152e-12
-1.12673e-12
-1.22565e-12
-1.3171e-12
-1.40023e-12
-1.47446e-12
-1.5394e-12
-1.59478e-12
-1.64038e-12
-1.67601e-12
-1.76354e-12
-1.92059e-12
-2.13995e-12
-2.39647e-12
-2.67195e-12
-1.10789e-22
-8.40162e-22
-8.35411e-21
-5.95586e-20
-3.15337e-19
-1.30179e-18
-4.37847e-18
-1.22807e-17
-2.93338e-17
-6.11438e-17
-1.1533e-16
-2.0369e-16
-3.46871e-16
-5.88017e-16
-1.02122e-15
-1.83518e-15
-3.36395e-15
-6.1258e-15
-1.0824e-14
-1.82869e-14
-2.93425e-14
-4.46537e-14
-6.45573e-14
-8.89584e-14
-1.17309e-13
-1.48675e-13
-1.8186e-13
-2.15568e-13
-2.48543e-13
-2.79684e-13
-3.08118e-13
-3.33221e-13
-3.54614e-13
-3.72134e-13
-3.85789e-13
-3.95714e-13
-4.02133e-13
-4.05316e-13
-4.05554e-13
-4.03132e-13
-3.98315e-13
-3.91331e-13
-3.82367e-13
-3.76501e-13
-3.87709e-13
-4.13978e-13
-4.83088e-23
-3.68413e-22
-3.60512e-21
-2.52475e-20
-1.3161e-19
-5.35263e-19
-1.76629e-18
-4.8409e-18
-1.12673e-17
-2.28666e-17
-4.20036e-17
-7.25742e-17
-1.2272e-16
-2.11911e-16
-3.83987e-16
-7.25116e-16
-1.38167e-15
-2.56874e-15
-4.55828e-15
-7.63977e-15
-1.20579e-14
-1.79434e-14
-2.52609e-14
-3.37916e-14
-4.31574e-14
-5.28772e-14
-6.24381e-14
-7.13636e-14
-7.92639e-14
-8.5864e-14
-9.10101e-14
-9.46585e-14
-9.6855e-14
-9.77109e-14
-9.73784e-14
-9.60303e-14
-9.38435e-14
-9.09875e-14
-8.76164e-14
-8.38649e-14
-7.98454e-14
-7.56484e-14
-7.13429e-14
-6.69789e-14
-6.25907e-14
-5.8203e-14
-1.97898e-23
-1.50595e-22
-1.44397e-21
-9.91507e-21
-5.0773e-20
-2.02868e-19
-6.55356e-19
-1.75247e-18
-3.97095e-18
-7.84569e-18
-1.40652e-17
-2.39444e-17
-4.07755e-17
-7.29421e-17
-1.39072e-16
-2.74365e-16
-5.35659e-16
-1.00134e-15
-1.76226e-15
-2.90251e-15
-4.47434e-15
-6.47542e-15
-8.83781e-15
-1.14333e-14
-1.4094e-14
-1.66405e-14
-1.89101e-14
-2.07774e-14
-2.21653e-14
-2.30451e-14
-2.34303e-14
-2.33659e-14
-2.29165e-14
-2.21563e-14
-2.11602e-14
-1.99985e-14
-1.8733e-14
-1.74154e-14
-1.60868e-14
-1.47787e-14
-1.35135e-14
-1.2306e-14
-1.11649e-14
-1.00937e-14
-9.09256e-15
-8.15932e-15
-7.57134e-24
-5.70343e-23
-5.33989e-22
-3.58882e-21
-1.80168e-20
-7.05569e-20
-2.22747e-19
-5.80513e-19
-1.28004e-18
-2.46376e-18
-4.32574e-18
-7.32252e-18
-1.27443e-17
-2.38919e-17
-4.78394e-17
-9.73307e-17
-1.91802e-16
-3.56144e-16
-6.16153e-16
-9.91025e-16
-1.48514e-15
-2.08252e-15
-2.74672e-15
-3.42661e-15
-4.06602e-15
-4.61408e-15
-5.03311e-15
-5.30258e-15
-5.4191e-15
-5.39344e-15
-5.24611e-15
-5.00278e-15
-4.69031e-15
-4.33392e-15
-3.95546e-15
-3.57256e-15
-3.19861e-15
-2.843e-15
-2.51176e-15
-2.20818e-15
-1.93347e-15
-1.6873e-15
-1.46828e-15
-1.27441e-15
-1.1033e-15
-9.52523e-16
-2.68533e-24
-1.98735e-23
-1.81197e-22
-1.19012e-21
-5.84734e-21
-2.24012e-20
-6.90202e-20
-1.75194e-19
-3.75969e-19
-7.06022e-19
-1.21996e-18
-2.07512e-18
-3.7381e-18
-7.36942e-18
-1.5346e-17
-3.17321e-17
-6.23434e-17
-1.13993e-16
-1.92732e-16
-3.01446e-16
-4.37725e-16
-5.93085e-16
-7.54093e-16
-9.05087e-16
-1.03148e-15
-1.12251e-15
-1.17273e-15
-1.18203e-15
-1.15462e-15
-1.09753e-15
-1.01895e-15
-9.27001e-16
-8.28828e-16
-7.30188e-16
-6.35318e-16
-5.47038e-16
-4.66977e-16
-3.95838e-16
-3.33647e-16
-2.79981e-16
-2.34145e-16
-1.95304e-16
-1.62581e-16
-1.35116e-16
-1.12106e-16
-9.28226e-17
-8.75007e-25
-6.31917e-24
-5.6e-23
-3.59025e-22
-1.72399e-21
-6.45177e-21
-1.93841e-20
-4.79136e-20
-1.00147e-19
-1.8392e-19
-3.14655e-19
-5.43453e-19
-1.02122e-18
-2.10762e-18
-4.5043e-18
-9.34579e-18
-1.81421e-17
-3.24748e-17
-5.34456e-17
-8.10485e-17
-1.13762e-16
-1.48618e-16
-1.81795e-16
-2.09513e-16
-2.28876e-16
-2.38397e-16
-2.38073e-16
-2.29116e-16
-2.13489e-16
-1.93427e-16
-1.71057e-16
-1.48161e-16
-1.26075e-16
-1.05682e-16
-8.74798e-17
-7.16612e-17
-5.82057e-17
-4.69563e-17
-3.76815e-17
-3.01194e-17
-2.4007e-17
-1.90987e-17
-1.51739e-17
-1.20393e-17
-9.52311e-18
-7.4542e-18
-2.59128e-25
-1.81566e-24
-1.56214e-23
-9.76797e-23
-4.57979e-22
-1.67276e-21
-4.8991e-21
-1.17968e-20
-2.40478e-20
-4.33264e-20
-7.38711e-20
-1.30662e-19
-2.56514e-19
-5.48745e-19
-1.18796e-18
-2.44917e-18
-4.66863e-18
-8.14923e-18
-1.30191e-17
-1.91008e-17
-2.58664e-17
-3.25236e-17
-3.82088e-17
-4.2209e-17
-4.41226e-17
-4.39105e-17
-4.1842e-17
-3.83796e-17
-3.40525e-17
-2.93545e-17
-2.46835e-17
-2.03187e-17
-1.64258e-17
-1.30779e-17
-1.0281e-17
-7.99858e-18
-6.17095e-18
-4.72988e-18
-3.60758e-18
-2.74202e-18
-2.07929e-18
-1.57394e-18
-1.18696e-18
-8.82014e-19
-6.23628e-19
-2.72992e-19
-6.88374e-26
-4.65841e-25
-3.8897e-24
-2.37146e-23
-1.08519e-22
-3.86734e-22
-1.10438e-21
-2.59299e-21
-5.16496e-21
-9.16164e-21
-1.56612e-20
-2.85092e-20
-5.82076e-20
-1.27509e-19
-2.76576e-19
-5.62671e-19
-1.04897e-18
-1.7809e-18
-2.75659e-18
-3.90633e-18
-5.09592e-18
-6.15765e-18
-6.93695e-18
-7.33411e-18
-7.3245e-18
-6.95321e-18
-6.31167e-18
-5.50869e-18
-4.64614e-18
-3.80426e-18
-3.03655e-18
-2.37159e-18
-1.81841e-18
-1.37289e-18
-1.02336e-18
-7.5495e-19
-5.52384e-19
-4.01645e-19
-2.90712e-19
-2.09711e-19
-1.50647e-19
-1.06523e-19
-7.02013e-20
-1.9801e-20
0
1.41146e-19
-1.61433e-26
-1.05173e-25
-8.52613e-25
-5.06978e-24
-2.26476e-23
-7.87803e-23
-2.19547e-22
-5.0336e-22
-9.81872e-22
-1.72044e-21
-2.96093e-21
-5.54807e-21
-1.16746e-20
-2.58761e-20
-5.57725e-20
-1.11463e-19
-2.02727e-19
-3.3424e-19
-5.00629e-19
-6.84421e-19
-8.59043e-19
-9.96273e-19
-1.0748e-18
-1.08596e-18
-1.03457e-18
-9.35362e-19
-8.07502e-19
-6.69475e-19
-5.35839e-19
-4.16022e-19
-3.14669e-19
-2.32772e-19
-1.68988e-19
-1.20777e-19
-8.52191e-20
-5.95124e-20
-4.12272e-20
-2.83863e-20
-1.94449e-20
-1.31431e-20
-8.41325e-21
-2.34406e-21
7.5567e-22
3.04085e-20
3.60732e-19
4.40011e-18
-3.2761e-27
-2.0513e-26
-1.61649e-25
-9.38377e-25
-4.09608e-24
-1.39239e-23
-3.79264e-23
-8.5069e-23
-1.62844e-22
-2.82477e-22
-4.8988e-22
-9.40242e-22
-2.01523e-21
-4.47144e-21
-9.5221e-21
-1.8649e-20
-3.30565e-20
-5.28949e-20
-7.66208e-20
-1.00986e-19
-1.21846e-19
-1.35486e-19
-1.39803e-19
-1.34811e-19
-1.22332e-19
-1.05167e-19
-8.62005e-20
-6.77666e-20
-5.13773e-20
-3.77516e-20
-2.70061e-20
-1.88845e-20
-1.29551e-20
-8.74755e-21
-5.83063e-21
-3.84658e-21
-2.51708e-21
-1.63288e-21
-1.03028e-21
-4.39864e-22
1.97269e-23
3.59092e-21
5.11269e-20
4.8319e-19
3.39558e-18
4.05069e-17
-5.60846e-28
-3.37492e-27
-2.59064e-26
-1.47086e-25
-6.28513e-25
-2.09206e-24
-5.58169e-24
-1.22732e-23
-2.30877e-23
-3.96392e-23
-6.9006e-23
-1.34359e-22
-2.89341e-22
-6.36691e-22
-1.33505e-21
-2.56133e-21
-4.42708e-21
-6.87938e-21
-9.64075e-21
-1.22497e-20
-1.42032e-20
-1.51322e-20
-1.49207e-20
-1.37154e-20
-1.18381e-20
-9.66152e-21
-7.50546e-21
-5.58433e-21
-4.00223e-21
-2.77732e-21
-1.87491e-21
-1.23652e-21
-7.99705e-22
-5.08919e-22
-3.19655e-22
-1.98642e-22
-1.21654e-22
-6.90781e-23
-3.64656e-25
2.00143e-22
3.419e-21
3.27514e-20
3.00948e-19
2.98865e-18
2.34671e-17
3.03609e-16
-7.82949e-29
-4.53646e-28
-3.40249e-27
-1.89469e-26
-7.94816e-26
-2.59806e-25
-6.80779e-25
-1.47008e-24
-2.71692e-24
-4.59738e-24
-7.95231e-24
-1.54768e-23
-3.2932e-23
-7.11942e-23
-1.46832e-22
-2.76603e-22
-4.67552e-22
-7.07387e-22
-9.60877e-22
-1.17842e-21
-1.31375e-21
-1.34118e-21
-1.26323e-21
-1.10608e-21
-9.07085e-22
-7.01824e-22
-5.1587e-22
-3.62577e-22
-2.45133e-22
-1.60291e-22
-1.01872e-22
-6.32058e-23
-3.8436e-23
-2.29898e-23
-1.35619e-23
-7.82221e-24
-3.61338e-24
1.74798e-24
7.16272e-23
1.08203e-21
1.14937e-20
1.22229e-19
1.38049e-18
1.59456e-17
1.39284e-16
1.83914e-15
-8.49821e-30
-4.76044e-29
-3.50385e-28
-1.9214e-27
-7.94441e-27
-2.55974e-26
-6.60669e-26
-1.4024e-25
-2.53836e-25
-4.18841e-25
-7.05681e-25
-1.34206e-24
-2.74895e-24
-5.75742e-24
-1.17005e-23
-2.18125e-23
-3.63452e-23
-5.38987e-23
-7.13222e-23
-8.47232e-23
-9.10346e-23
-8.91898e-23
-8.03169e-23
-6.70094e-23
-5.22043e-23
-3.82677e-23
-2.65874e-23
-1.7628e-23
-1.12239e-23
-6.90217e-24
-4.12073e-24
-2.39952e-24
-1.36845e-24
-7.66544e-25
-4.16531e-25
-1.22086e-25
6.27082e-25
1.51036e-23
2.03104e-22
2.5203e-21
2.99459e-20
3.75755e-19
5.22889e-18
7.06421e-17
6.84984e-16
8.88772e-15
-6.66388e-31
-3.63404e-30
-2.64118e-29
-1.4344e-28
-5.87686e-28
-1.87499e-27
-4.78004e-27
-9.96664e-27
-1.75278e-26
-2.7598e-26
-4.35543e-26
-7.76426e-26
-1.43922e-25
-2.80524e-25
-5.65794e-25
-1.07148e-24
-1.8033e-24
-2.67185e-24
-3.49219e-24
-4.05664e-24
-4.22928e-24
-3.99611e-24
-3.4532e-24
-2.75277e-24
-2.0413e-24
-1.41952e-24
-9.32874e-25
-5.83572e-25
-3.49828e-25
-2.02182e-25
-1.13276e-25
-6.18232e-26
-3.29627e-26
-1.67371e-26
-8.53709e-28
8.17993e-26
1.74256e-24
2.6214e-23
3.78843e-22
5.08228e-21
6.49241e-20
9.39335e-19
1.62088e-17
2.55457e-16
2.7159e-15
3.39588e-14
-3.30877e-32
-1.7774e-31
-1.28759e-30
-6.9826e-30
-2.85514e-29
-9.06784e-29
-2.28847e-28
-4.67011e-28
-7.85214e-28
-1.12848e-27
-1.51767e-27
-2.26096e-27
-2.83531e-27
-3.48775e-27
-7.06989e-27
-1.73761e-26
-3.52352e-26
-5.79802e-26
-7.99234e-26
-9.45142e-26
-9.80482e-26
-9.08939e-26
-7.62812e-26
-5.86106e-26
-4.16534e-26
-2.76286e-26
-1.7248e-26
-1.02139e-26
-5.77907e-27
-3.14484e-27
-1.65564e-27
-8.45906e-28
-3.83659e-28
1.35689e-28
7.73255e-27
1.54253e-25
2.55523e-24
4.16711e-23
6.40065e-22
8.98174e-21
1.19946e-19
1.95889e-18
4.17336e-17
7.56612e-16
8.65858e-15
1.03513e-13
-7.59905e-34
-4.1109e-33
-3.01445e-32
-1.65314e-31
-6.81278e-31
-2.16758e-30
-5.42168e-30
-1.07388e-29
-1.67198e-29
-1.96813e-29
-1.49627e-29
-4.52173e-30
4.47195e-29
2.19498e-28
5.49087e-28
8.16137e-28
8.44038e-28
7.98326e-28
6.20183e-28
3.75731e-28
1.84435e-28
5.78897e-29
4.35896e-30
-1.05218e-30
-3.98791e-30
-4.31773e-30
-3.2671e-30
-1.96866e-30
-9.99696e-31
-4.37364e-31
-9.63338e-32
1.0812e-30
2.49091e-29
5.42123e-28
1.0571e-26
1.96219e-25
3.51821e-24
6.08365e-23
9.86882e-22
1.42956e-20
1.93309e-19
3.48857e-18
9.14453e-17
1.8742e-15
2.26421e-14