/*--------------------------------*- C++ -*----------------------------------*\
  =========                 |
  \\      /  F ield         | OpenFOAM: The Open Source CFD Toolbox
   \\    /   O peration     | Website:  https://openfoam.org
    \\  /    A nd           | Version:  7
     \\/     M anipulation  |
\*---------------------------------------------------------------------------*/
FoamFile
{
    version     2.0;
    format      ascii;
    class       surfaceScalarField;
    location    "0.5";
    object      alphaPhi0.water;
}
// * * * * * * * * * * * * * * * * * * * * * * * * * * * * * * * * * * * * * //

dimensions      [0 3 -1 0 0 0 0];

internalField   nonuniform List<scalar> 
17936
(
-1.70446e-06
1.70446e-06
-2.78799e-06
1.08353e-06
-2.87101e-06
8.30174e-08
-2.33782e-06
-5.33194e-07
-1.52008e-06
-8.17739e-07
-5.68151e-07
-9.51926e-07
4.28884e-07
-9.97035e-07
1.42659e-06
-9.97708e-07
2.3983e-06
-9.71706e-07
3.32969e-06
-9.3139e-07
4.2137e-06
-8.84017e-07
5.04759e-06
-8.33886e-07
5.8312e-06
-7.83608e-07
6.56591e-06
-7.34714e-07
7.25394e-06
-6.88025e-07
7.89783e-06
-6.43887e-07
8.50016e-06
-6.02333e-07
9.06333e-06
-5.63168e-07
9.58935e-06
-5.26024e-07
1.00797e-05
-4.90397e-07
1.05354e-05
-4.55655e-07
1.09564e-05
-4.21033e-07
1.13421e-05
-3.85631e-07
1.16905e-05
-3.48393e-07
1.19985e-05
-3.08079e-07
1.22618e-05
-2.63219e-07
1.24737e-05
-2.1195e-07
1.26255e-05
-1.51756e-07
1.27028e-05
-7.7305e-08
1.2681e-05
2.17672e-08
1.25351e-05
1.45943e-07
1.22441e-05
2.90929e-07
1.17787e-05
4.65445e-07
1.11002e-05
6.78491e-07
1.01627e-05
9.37449e-07
8.91717e-06
1.24558e-06
7.31984e-06
1.59734e-06
5.34982e-06
1.97002e-06
3.02972e-06
2.32011e-06
4.46028e-07
2.58369e-06
-2.38245e-06
2.83233e-06
-5.39257e-06
2.95512e-06
-7.66099e-06
2.26842e-06
-7.84162e-06
1.80639e-07
-5.04579e-06
-2.79583e-06
-5.04577e-06
-1.56817e-06
3.27264e-06
-1.99775e-06
1.5131e-06
-1.82283e-06
-9.18999e-08
-1.28487e-06
-1.07116e-06
-5.21912e-07
-1.58069e-06
3.5964e-07
-1.83348e-06
1.29466e-06
-1.93206e-06
2.23961e-06
-1.94265e-06
3.16906e-06
-1.90116e-06
4.06802e-06
-1.83035e-06
4.92822e-06
-1.74422e-06
5.74566e-06
-1.65132e-06
6.51899e-06
-1.55694e-06
7.24847e-06
-1.46419e-06
7.93526e-06
-1.37481e-06
8.58096e-06
-1.28958e-06
9.1873e-06
-1.20868e-06
9.75592e-06
-1.13179e-06
1.02882e-05
-1.05829e-06
1.0785e-05
-9.87239e-07
1.12468e-05
-9.17457e-07
1.16733e-05
-8.47489e-07
1.20633e-05
-7.75601e-07
1.24146e-05
-6.99747e-07
1.27241e-05
-6.17519e-07
1.29869e-05
-5.26069e-07
1.31969e-05
-4.21926e-07
1.33459e-05
-3.00751e-07
1.34249e-05
-1.56369e-07
1.34266e-05
2.01228e-08
1.33364e-05
2.36173e-07
1.31294e-05
4.97844e-07
1.27789e-05
8.15955e-07
1.22527e-05
1.20473e-06
1.15113e-05
1.6788e-06
1.05074e-05
2.2495e-06
9.18714e-06
2.91761e-06
7.49795e-06
3.65921e-06
5.40618e-06
4.41188e-06
2.92703e-06
5.06284e-06
2.01233e-07
5.5665e-06
-2.49113e-06
5.60519e-06
-4.48276e-06
4.26016e-06
-5.34526e-06
1.04314e-06
-4.33876e-06
-3.80231e-06
-9.38449e-06
-1.17557e-06
4.44821e-06
-1.32327e-06
1.6608e-06
-1.05962e-06
-3.55554e-07
-5.27244e-07
-1.60353e-06
1.91409e-07
-2.29935e-06
1.01653e-06
-2.6586e-06
1.8937e-06
-2.80923e-06
2.78524e-06
-2.83419e-06
3.66753e-06
-2.78346e-06
4.52607e-06
-2.68889e-06
5.35234e-06
-2.57049e-06
6.14175e-06
-2.44073e-06
6.89219e-06
-2.30738e-06
7.60314e-06
-2.17514e-06
8.27498e-06
-2.04665e-06
8.9086e-06
-1.92321e-06
9.50511e-06
-1.80518e-06
1.00655e-05
-1.69222e-06
1.05908e-05
-1.5835e-06
1.10812e-05
-1.47773e-06
1.1537e-05
-1.37324e-06
1.19575e-05
-1.26794e-06
1.23412e-05
-1.15935e-06
1.2686e-05
-1.04449e-06
1.29883e-05
-9.19876e-07
1.32437e-05
-7.81389e-07
1.34458e-05
-6.24121e-07
1.35872e-05
-4.42137e-07
1.36588e-05
-2.27962e-07
1.3651e-05
2.79005e-08
1.35512e-05
3.36052e-07
1.33414e-05
7.07659e-07
1.30006e-05
1.15669e-06
1.25052e-05
1.70017e-06
1.18281e-05
2.35588e-06
1.09393e-05
3.1383e-06
9.80643e-06
4.0505e-06
8.39723e-06
5.06841e-06
6.68815e-06
6.12095e-06
4.68567e-06
7.06532e-06
2.4981e-06
7.75419e-06
3.59329e-07
7.70166e-06
-1.50517e-06
6.12628e-06
-2.7759e-06
2.3139e-06
-2.95133e-06
-3.4495e-06
-1.22182e-05
-7.77011e-07
5.22523e-06
-7.57968e-07
1.64175e-06
-4.29374e-07
-6.84148e-07
1.08402e-07
-2.14131e-06
7.96627e-07
-2.98757e-06
1.5768e-06
-3.43878e-06
2.4043e-06
-3.63672e-06
3.24745e-06
-3.67734e-06
4.08542e-06
-3.62142e-06
4.90477e-06
-3.50824e-06
5.69717e-06
-3.36289e-06
6.45773e-06
-3.20129e-06
7.18383e-06
-3.03348e-06
7.87431e-06
-2.86562e-06
8.52894e-06
-2.70127e-06
9.148e-06
-2.54227e-06
9.73202e-06
-2.3892e-06
1.02816e-05
-2.24177e-06
1.0797e-05
-2.09897e-06
1.12785e-05
-1.95924e-06
1.17258e-05
-1.82049e-06
1.21379e-05
-1.68006e-06
1.25133e-05
-1.53477e-06
1.28496e-05
-1.3808e-06
1.31434e-05
-1.21365e-06
1.33901e-05
-1.02805e-06
1.35837e-05
-8.17793e-07
1.37171e-05
-5.75528e-07
1.37816e-05
-2.92458e-07
1.37675e-05
4.2051e-08
1.3663e-05
4.40491e-07
1.34539e-05
9.16804e-07
1.31235e-05
1.48712e-06
1.26539e-05
2.16976e-06
1.20266e-05
2.98318e-06
1.12232e-05
3.94164e-06
1.02269e-05
5.0468e-06
9.02363e-06
6.27172e-06
7.60605e-06
7.53852e-06
5.98416e-06
8.68722e-06
4.2403e-06
9.49805e-06
2.5165e-06
9.48423e-06
8.61737e-07
7.78268e-06
-5.94105e-07
3.60184e-06
-1.38337e-06
-2.66877e-06
-1.34636e-05
-3.95202e-07
5.62043e-06
-2.58997e-07
1.50555e-06
1.21817e-07
-1.06496e-06
6.69819e-07
-2.68931e-06
1.33854e-06
-3.65629e-06
2.08281e-06
-4.18304e-06
2.86763e-06
-4.42154e-06
3.6673e-06
-4.47702e-06
4.46418e-06
-4.41829e-06
5.24633e-06
-4.2904e-06
6.00595e-06
-4.1225e-06
6.73806e-06
-3.93341e-06
7.43971e-06
-3.73513e-06
8.10925e-06
-3.53516e-06
8.74592e-06
-3.33794e-06
9.34947e-06
-3.14583e-06
9.91996e-06
-2.95969e-06
1.04575e-05
-2.77928e-06
1.0962e-05
-2.60353e-06
1.14334e-05
-2.43062e-06
1.1871e-05
-2.25811e-06
1.22738e-05
-2.08284e-06
1.264e-05
-1.90098e-06
1.29672e-05
-1.70795e-06
1.32519e-05
-1.49834e-06
1.34896e-05
-1.2658e-06
1.36748e-05
-1.00296e-06
1.38005e-05
-7.01226e-07
1.38586e-05
-3.50586e-07
1.38399e-05
6.07239e-08
1.3734e-05
5.46446e-07
1.35288e-05
1.12204e-06
1.32112e-05
1.80472e-06
1.27679e-05
2.61298e-06
1.21867e-05
3.56439e-06
1.14572e-05
4.67112e-06
1.05727e-05
5.93136e-06
9.53065e-06
7.31376e-06
8.3346e-06
8.73457e-06
6.99786e-06
1.0024e-05
5.57902e-06
1.09169e-05
4.12679e-06
1.09365e-05
2.53559e-06
8.93918e-06
1.15291e-06
4.97582e-06
1.10408e-07
-1.63485e-06
-1.35516e-05
-5.30614e-08
5.67349e-06
1.80185e-07
1.2723e-06
6.09999e-07
-1.49478e-06
1.17361e-06
-3.25291e-06
1.83053e-06
-4.31322e-06
2.54636e-06
-4.89887e-06
3.2946e-06
-5.16979e-06
4.05541e-06
-5.23783e-06
4.81454e-06
-5.17742e-06
5.56183e-06
-5.03769e-06
6.29018e-06
-4.85086e-06
6.99477e-06
-4.638e-06
7.67241e-06
-4.41278e-06
8.32111e-06
-4.18385e-06
8.93966e-06
-3.95648e-06
9.52735e-06
-3.73353e-06
1.00838e-05
-3.51613e-06
1.06087e-05
-3.30418e-06
1.11017e-05
-3.09653e-06
1.15623e-05
-2.89122e-06
1.19897e-05
-2.68547e-06
1.23825e-05
-2.4757e-06
1.27391e-05
-2.25751e-06
1.30567e-05
-2.02561e-06
1.33321e-05
-1.77375e-06
1.3561e-05
-1.49465e-06
1.37379e-05
-1.17986e-06
1.38564e-05
-8.19727e-07
1.3909e-05
-4.03175e-07
1.38872e-05
8.25014e-08
1.37818e-05
6.51857e-07
1.35827e-05
1.32107e-06
1.32798e-05
2.10763e-06
1.28635e-05
3.02933e-06
1.23259e-05
4.10195e-06
1.16625e-05
5.33455e-06
1.08728e-05
6.72108e-06
9.96104e-06
8.22548e-06
8.93623e-06
9.75939e-06
7.81154e-06
1.11486e-05
6.62169e-06
1.21067e-05
5.4006e-06
1.21575e-05
3.95414e-06
1.0487e-05
2.48432e-06
6.43623e-06
1.07288e-06
-2.34289e-07
-1.24189e-05
2.42379e-07
5.43111e-06
5.58489e-07
9.56192e-07
1.04121e-06
-1.9775e-06
1.62612e-06
-3.83782e-06
2.27794e-06
-4.96504e-06
2.97154e-06
-5.59247e-06
3.68851e-06
-5.88675e-06
4.41473e-06
-5.96405e-06
5.13942e-06
-5.90211e-06
5.85432e-06
-5.75259e-06
6.55321e-06
-5.54974e-06
7.23151e-06
-5.3163e-06
7.88596e-06
-5.06722e-06
8.51426e-06
-4.81216e-06
9.11486e-06
-4.55708e-06
9.68666e-06
-4.30533e-06
1.02289e-05
-4.05836e-06
1.07409e-05
-3.81616e-06
1.1222e-05
-3.57762e-06
1.16714e-05
-3.34062e-06
1.2088e-05
-3.10215e-06
1.24706e-05
-2.85826e-06
1.28171e-05
-2.60403e-06
1.31251e-05
-2.33356e-06
1.33912e-05
-2.03984e-06
1.36112e-05
-1.71471e-06
1.37802e-05
-1.34882e-06
1.3892e-05
-9.31582e-07
1.39399e-05
-4.51048e-07
1.39162e-05
1.06198e-07
1.38129e-05
7.55178e-07
1.36217e-05
1.51226e-06
1.33348e-05
2.39458e-06
1.29454e-05
3.4187e-06
1.24493e-05
4.59805e-06
1.18456e-05
5.93822e-06
1.11378e-05
7.42886e-06
1.03336e-05
9.02969e-06
9.44353e-06
1.06495e-05
8.47772e-06
1.21144e-05
7.4494e-06
1.31351e-05
6.35597e-06
1.3251e-05
5.0381e-06
1.18048e-05
3.44158e-06
8.09916e-06
1.80347e-06
1.39344e-06
-1.0553e-05
4.43417e-07
4.98769e-06
8.74428e-07
5.25183e-07
1.41929e-06
-2.52237e-06
2.03143e-06
-4.44996e-06
2.68363e-06
-5.61723e-06
3.36008e-06
-6.26892e-06
4.05028e-06
-6.57695e-06
4.74575e-06
-6.65952e-06
5.4392e-06
-6.59556e-06
6.12426e-06
-6.43766e-06
6.79566e-06
-6.22113e-06
7.44913e-06
-5.96977e-06
8.08141e-06
-5.6995e-06
8.69001e-06
-5.42076e-06
9.27306e-06
-5.14013e-06
9.82915e-06
-4.86142e-06
1.03572e-05
-4.58636e-06
1.08561e-05
-4.31511e-06
1.13251e-05
-4.04657e-06
1.1763e-05
-3.77856e-06
1.21687e-05
-3.50787e-06
1.25407e-05
-3.23024e-06
1.2877e-05
-2.94034e-06
1.31751e-05
-2.63168e-06
1.34319e-05
-2.29658e-06
1.36433e-05
-1.92614e-06
1.38047e-05
-1.51018e-06
1.39104e-05
-1.03733e-06
1.39543e-05
-4.94969e-07
1.39297e-05
1.30807e-07
1.38297e-05
8.55204e-07
1.36476e-05
1.6944e-06
1.33774e-05
2.66476e-06
1.30148e-05
3.78127e-06
1.25581e-05
5.05478e-06
1.20089e-05
6.48742e-06
1.13729e-05
8.06488e-06
1.0659e-05
9.74358e-06
9.87712e-06
1.14313e-05
9.03302e-06
1.29585e-05
8.12319e-06
1.40449e-05
7.11642e-06
1.42577e-05
5.91134e-06
1.30099e-05
4.29247e-06
9.75983e-06
2.42332e-06
3.39138e-06
-8.11756e-06
5.79455e-07
4.40824e-06
1.13435e-06
-2.97132e-08
1.74952e-06
-3.13753e-06
2.39359e-06
-5.09403e-06
3.05006e-06
-6.2737e-06
3.71308e-06
-6.93194e-06
4.38011e-06
-7.24398e-06
5.0482e-06
-7.32762e-06
5.71339e-06
-7.26074e-06
6.37115e-06
-7.09542e-06
7.01709e-06
-6.86708e-06
7.64734e-06
-6.60002e-06
8.25865e-06
-6.3108e-06
8.84839e-06
-6.0105e-06
9.41447e-06
-5.70622e-06
9.95519e-06
-5.40215e-06
1.04691e-05
-5.10031e-06
1.09551e-05
-4.80103e-06
1.14118e-05
-4.50329e-06
1.18381e-05
-4.20487e-06
1.22326e-05
-3.90242e-06
1.25938e-05
-3.59144e-06
1.29197e-05
-3.26624e-06
1.32079e-05
-2.91984e-06
1.34553e-05
-2.54399e-06
1.36582e-05
-2.12908e-06
1.38123e-05
-1.66425e-06
1.39124e-05
-1.13746e-06
1.39531e-05
-5.35608e-07
1.39284e-05
1.55489e-07
1.38326e-05
9.50987e-07
1.36604e-05
1.8666e-06
1.34075e-05
2.91768e-06
1.30713e-05
4.11745e-06
1.2652e-05
5.47414e-06
1.21528e-05
6.98661e-06
1.15804e-05
8.63723e-06
1.09438e-05
1.03802e-05
1.02512e-05
1.2124e-05
9.50343e-06
1.37063e-05
8.68471e-06
1.48636e-05
7.74328e-06
1.51992e-05
6.56811e-06
1.41851e-05
5.03409e-06
1.12939e-05
2.9384e-06
5.50444e-06
-5.17938e-06
6.75471e-07
3.73277e-06
1.35149e-06
-7.05734e-07
2.0395e-06
-3.82555e-06
2.71736e-06
-5.77188e-06
3.3799e-06
-6.93625e-06
4.03167e-06
-7.58371e-06
4.67813e-06
-7.89044e-06
5.32164e-06
-7.97113e-06
5.96129e-06
-7.90039e-06
6.59419e-06
-7.72832e-06
7.21675e-06
-7.48964e-06
7.82542e-06
-7.2087e-06
8.41705e-06
-6.90243e-06
8.98889e-06
-6.58235e-06
9.53868e-06
-6.256e-06
1.00645e-05
-5.92794e-06
1.05646e-05
-5.60044e-06
1.10376e-05
-5.27402e-06
1.14821e-05
-4.94775e-06
1.18966e-05
-4.61942e-06
1.22798e-05
-4.28561e-06
1.263e-05
-3.94166e-06
1.29453e-05
-3.58156e-06
1.32234e-05
-3.19794e-06
1.34615e-05
-2.78203e-06
1.3656e-05
-2.32364e-06
1.38031e-05
-1.81128e-06
1.3898e-05
-1.23239e-06
1.39359e-05
-5.73528e-07
1.39118e-05
1.7956e-07
1.3821e-05
1.04179e-06
1.36594e-05
2.02824e-06
1.3424e-05
3.15309e-06
1.31137e-05
4.42776e-06
1.27299e-05
5.85795e-06
1.22769e-05
7.43958e-06
1.17618e-05
9.15234e-06
1.11928e-05
1.09491e-05
1.05759e-05
1.27409e-05
9.90758e-06
1.43747e-05
9.16295e-06
1.56083e-05
8.27615e-06
1.6086e-05
7.12066e-06
1.53406e-05
5.53774e-06
1.28768e-05
3.27089e-06
7.77128e-06
-1.90871e-06
7.54072e-07
2.97869e-06
1.54029e-06
-1.49195e-06
2.29798e-06
-4.58324e-06
3.00811e-06
-6.48201e-06
3.67613e-06
-7.60426e-06
4.31715e-06
-8.22473e-06
4.9446e-06
-8.51789e-06
5.56573e-06
-8.59226e-06
6.18225e-06
-8.51691e-06
6.79257e-06
-8.33864e-06
7.39375e-06
-8.09081e-06
7.98252e-06
-7.79746e-06
8.55577e-06
-7.47568e-06
9.11073e-06
-7.13731e-06
9.64495e-06
-6.79022e-06
1.01563e-05
-6.4393e-06
1.06429e-05
-6.08707e-06
1.11031e-05
-5.73423e-06
1.15354e-05
-5.37996e-06
1.19381e-05
-5.02212e-06
1.23097e-05
-4.6573e-06
1.26488e-05
-4.2807e-06
1.29533e-05
-3.8861e-06
1.32212e-05
-3.46581e-06
1.34498e-05
-3.01063e-06
1.3636e-05
-2.50986e-06
1.37762e-05
-1.95145e-06
1.38662e-05
-1.32243e-06
1.39019e-05
-6.09173e-07
1.3879e-05
2.02482e-07
1.37937e-05
1.12706e-06
1.36431e-05
2.17887e-06
1.34253e-05
3.37088e-06
1.31403e-05
4.71275e-06
1.27904e-05
6.20781e-06
1.23806e-05
7.8494e-06
1.19177e-05
9.61519e-06
1.14091e-05
1.14578e-05
1.08586e-05
1.32914e-05
1.0259e-05
1.49743e-05
9.57892e-06
1.62883e-05
8.74298e-06
1.69219e-05
7.61041e-06
1.64731e-05
5.98546e-06
1.45017e-05
3.56955e-06
1.01872e-05
1.66066e-06
8.28483e-07
2.15021e-06
1.71263e-06
-2.37609e-06
2.53344e-06
-5.40405e-06
3.27135e-06
-7.21992e-06
3.94183e-06
-8.27474e-06
4.57096e-06
-8.85385e-06
5.17994e-06
-9.12688e-06
5.78032e-06
-9.19264e-06
6.37578e-06
-9.11237e-06
6.96562e-06
-8.92848e-06
7.54729e-06
-8.67249e-06
8.11774e-06
-8.36791e-06
8.67392e-06
-8.03186e-06
9.21299e-06
-7.67638e-06
9.73239e-06
-7.30962e-06
1.02298e-05
-6.93674e-06
1.07033e-05
-6.56052e-06
1.11509e-05
-6.18181e-06
1.15709e-05
-5.79994e-06
1.19616e-05
-5.4129e-06
1.23216e-05
-5.0173e-06
1.26493e-05
-4.60833e-06
1.29428e-05
-4.17962e-06
1.32002e-05
-3.72324e-06
1.34192e-05
-3.22964e-06
1.35971e-05
-2.68768e-06
1.37304e-05
-2.08485e-06
1.38158e-05
-1.4078e-06
1.38495e-05
-6.4286e-07
1.38281e-05
2.23862e-07
1.37488e-05
1.20638e-06
1.36095e-05
2.31817e-06
1.34094e-05
3.57102e-06
1.31492e-05
4.97293e-06
1.28319e-05
6.52508e-06
1.24627e-05
8.21856e-06
1.20483e-05
1.00296e-05
1.15949e-05
1.19112e-05
1.11045e-05
1.37818e-05
1.05673e-05
1.55116e-05
9.94803e-06
1.69075e-05
9.16577e-06
1.77042e-05
8.06902e-06
1.75699e-05
6.42944e-06
1.61413e-05
3.8958e-06
1.27208e-05
5.55628e-06
9.04638e-07
1.24557e-06
1.87737e-06
-3.34882e-06
2.75357e-06
-6.28025e-06
3.51233e-06
-7.97868e-06
4.18002e-06
-8.94244e-06
4.79458e-06
-9.46841e-06
5.38474e-06
-9.71704e-06
5.96546e-06
-9.77336e-06
6.54161e-06
-9.68851e-06
7.11282e-06
-9.49969e-06
7.67671e-06
-9.23638e-06
8.23031e-06
-8.92151e-06
8.77061e-06
-8.57216e-06
9.29474e-06
-8.2005e-06
9.80002e-06
-7.81491e-06
1.02841e-05
-7.42078e-06
1.07446e-05
-7.02111e-06
1.11798e-05
-6.61694e-06
1.15876e-05
-6.20773e-06
1.19663e-05
-5.79163e-06
1.23144e-05
-5.36541e-06
1.26303e-05
-4.92427e-06
1.29125e-05
-4.4618e-06
1.31592e-05
-3.96992e-06
1.33684e-05
-3.43881e-06
1.35377e-05
-2.85697e-06
1.36642e-05
-2.21144e-06
1.3745e-05
-1.48857e-06
1.37769e-05
-6.74774e-07
1.37573e-05
2.43443e-07
1.36843e-05
1.27947e-06
1.35565e-05
2.44594e-06
1.3374e-05
3.75352e-06
1.31382e-05
5.20876e-06
1.28524e-05
6.81085e-06
1.2522e-05
8.54896e-06
1.21532e-05
1.03984e-05
1.17513e-05
1.2313e-05
1.13171e-05
1.4216e-05
1.08392e-05
1.59895e-05
1.02812e-05
1.74655e-05
9.56117e-06
1.84242e-05
8.52317e-06
1.86079e-05
6.91336e-06
1.77511e-05
4.30581e-06
1.53284e-05
9.86192e-06
9.8531e-07
2.60257e-07
2.04166e-06
-4.40517e-06
2.96551e-06
-7.2041e-06
3.73589e-06
-8.74906e-06
4.3934e-06
-9.59995e-06
4.98942e-06
-1.00644e-05
5.55971e-06
-1.02873e-05
6.12147e-06
-1.03351e-05
6.67973e-06
-1.02468e-05
7.23389e-06
-1.00539e-05
7.78146e-06
-9.78395e-06
8.31949e-06
-9.45955e-06
8.84497e-06
-9.09764e-06
9.35499e-06
-8.71051e-06
9.84678e-06
-8.3067e-06
1.03178e-05
-7.89184e-06
1.07658e-05
-7.46911e-06
1.11886e-05
-7.03972e-06
1.15842e-05
-6.60329e-06
1.19507e-05
-6.15818e-06
1.22867e-05
-5.70137e-06
1.25906e-05
-5.22818e-06
1.28611e-05
-4.73225e-06
1.30966e-05
-4.20543e-06
1.32955e-05
-3.63776e-06
1.3456e-05
-3.01744e-06
1.35756e-05
-2.33105e-06
1.36517e-05
-1.56469e-06
1.36819e-05
-7.04956e-07
1.36642e-05
2.61111e-07
1.35975e-05
1.34619e-06
1.34814e-05
2.56205e-06
1.33165e-05
3.91839e-06
1.31047e-05
5.42058e-06
1.28496e-05
7.06594e-06
1.25566e-05
8.842e-06
1.22314e-05
1.07236e-05
1.18787e-05
1.26658e-05
1.14983e-05
1.45964e-05
1.10787e-05
1.6409e-05
1.05852e-05
1.7959e-05
9.93993e-06
1.90695e-05
8.99229e-06
1.95555e-05
7.47587e-06
1.92675e-05
4.85831e-06
1.79459e-05
1.47201e-05
1.07318e-06
-8.12923e-07
2.21306e-06
-5.54505e-06
3.17654e-06
-8.16758e-06
3.94644e-06
-9.51897e-06
4.58429e-06
-1.02378e-05
5.15685e-06
-1.0637e-05
5.70583e-06
-1.08363e-05
6.24901e-06
-1.08783e-05
6.79047e-06
-1.07882e-05
7.32883e-06
-1.05922e-05
7.86126e-06
-1.03164e-05
8.38474e-06
-9.98302e-06
8.89624e-06
-9.60915e-06
9.3928e-06
-9.20707e-06
9.87159e-06
-8.78549e-06
1.033e-05
-8.35024e-06
1.07656e-05
-7.90471e-06
1.11761e-05
-7.45022e-06
1.15593e-05
-6.98654e-06
1.19135e-05
-6.51233e-06
1.2237e-05
-6.02484e-06
1.25284e-05
-5.51963e-06
1.27866e-05
-4.99045e-06
1.30104e-05
-4.42923e-06
1.31986e-05
-3.82598e-06
1.33498e-05
-3.16864e-06
1.34622e-05
-2.44337e-06
1.35334e-05
-1.63596e-06
1.35618e-05
-7.3329e-07
1.3546e-05
2.76902e-07
1.34857e-05
1.40649e-06
1.33813e-05
2.66642e-06
1.3234e-05
4.06564e-06
1.3046e-05
5.60859e-06
1.28211e-05
7.29091e-06
1.25644e-05
9.09863e-06
1.22816e-05
1.10064e-05
1.19764e-05
1.2971e-05
1.16485e-05
1.49243e-05
1.12875e-05
1.677e-05
1.08625e-05
1.83839e-05
1.03059e-05
1.96261e-05
9.48523e-06
2.03762e-05
8.1517e-06
2.06011e-05
5.61809e-06
2.04795e-05
2.0338e-05
1.17068e-06
-1.98361e-06
2.40374e-06
-6.77811e-06
3.39549e-06
-9.15933e-06
4.14771e-06
-1.02712e-05
4.75441e-06
-1.08445e-05
5.29836e-06
-1.11809e-05
5.82468e-06
-1.13626e-05
6.34966e-06
-1.14033e-05
6.87528e-06
-1.13138e-05
7.39883e-06
-1.11158e-05
7.91702e-06
-1.08346e-05
8.42674e-06
-1.04927e-05
8.92492e-06
-1.01073e-05
9.40854e-06
-9.69069e-06
9.87469e-06
-9.25164e-06
1.03207e-05
-8.79621e-06
1.0744e-05
-8.32799e-06
1.11422e-05
-7.84842e-06
1.1513e-05
-7.35738e-06
1.18545e-05
-6.85384e-06
1.21651e-05
-6.33547e-06
1.24436e-05
-5.79814e-06
1.2689e-05
-5.23584e-06
1.29005e-05
-4.64068e-06
1.30773e-05
-4.00279e-06
1.32186e-05
-3.31e-06
1.33232e-05
-2.54793e-06
1.33892e-05
-1.702e-06
1.34154e-05
-7.59489e-07
1.34013e-05
2.91023e-07
1.33473e-05
1.4605e-06
1.32546e-05
2.75909e-06
1.3125e-05
4.19527e-06
1.29606e-05
5.77298e-06
1.27653e-05
7.48621e-06
1.25444e-05
9.31953e-06
1.23029e-05
1.1248e-05
1.20441e-05
1.32298e-05
1.17677e-05
1.52007e-05
1.14653e-05
1.70725e-05
1.11121e-05
1.87371e-05
1.06556e-05
2.00827e-05
9.99679e-06
2.10349e-05
8.94375e-06
2.16541e-05
6.76489e-06
2.26584e-05
2.71027e-05
5.46633e-39
-1.40309e-38
-1.82301e-38
1.51319e-38
-4.75508e-37
1.00462e-37
-1.82456e-35
2.71047e-36
-2.40064e-34
2.97381e-35
-1.50675e-33
1.65515e-34
-6.23606e-33
6.26367e-34
-2.20095e-32
2.04789e-33
-7.3836e-32
6.07254e-33
-2.27755e-31
1.73451e-32
-6.04067e-31
4.41923e-32
-1.38916e-30
9.37178e-32
-2.96824e-30
1.75324e-31
-6.27993e-30
3.07935e-31
-1.34381e-29
5.26305e-31
-2.87076e-29
8.72163e-31
-6.05412e-29
1.3728e-30
-1.26778e-28
2.01962e-30
-2.66258e-28
2.67933e-30
-5.72588e-28
2.71566e-30
-1.28874e-27
-3.58406e-31
-2.94408e-27
-3.24304e-29
-6.80154e-27
-1.49115e-28
-1.59731e-26
-5.37311e-28
-3.82034e-26
-1.78299e-27
-9.31183e-26
-5.7384e-27
-2.31244e-25
-1.83139e-26
-5.84423e-25
-5.85564e-26
-1.49855e-24
-1.885e-25
-3.87321e-24
-6.11536e-25
-9.99694e-24
-1.99429e-24
-2.55328e-23
-6.89098e-24
-6.21875e-23
-2.72484e-23
-1.51e-22
-9.76573e-23
-1.32718e-22
-4.0128e-22
-3.1051e-23
-4.16494e-22
-1.99167e-26
-4.76068e-23
-8.23092e-25
-1.77322e-38
2.10748e-39
-2.01864e-36
1.58291e-36
-1.67987e-34
9.58312e-35
-4.14407e-33
1.96905e-33
-3.96557e-32
1.72313e-32
-2.20395e-31
8.38887e-32
-9.69138e-31
3.09861e-31
-3.58218e-30
1.01104e-30
-1.01715e-29
2.70366e-30
-2.21518e-29
5.6597e-30
-4.20154e-29
9.98684e-30
-8.14307e-29
1.64434e-29
-1.82352e-28
2.9043e-29
-4.66156e-28
5.79317e-29
-1.19208e-27
1.18705e-28
-2.7725e-27
2.2101e-28
-5.84098e-27
3.55082e-28
-1.16942e-26
4.92252e-28
-2.34063e-26
5.72918e-28
-4.82957e-26
4.04086e-28
-1.02973e-25
-8.50292e-28
-2.21189e-25
-5.83747e-27
-4.7538e-25
-2.15386e-26
-1.02619e-24
-6.71914e-26
-2.23883e-24
-1.95836e-25
-4.97007e-24
-5.56556e-25
-1.12953e-23
-1.57951e-24
-2.63963e-23
-4.54385e-24
-6.3482e-23
-1.33774e-23
-1.56338e-22
-4.04635e-23
-3.89298e-22
-1.25258e-22
-9.53622e-22
-3.90203e-22
-2.1561e-21
-1.1718e-21
-3.71915e-21
-3.08997e-21
-3.80961e-21
-6.14013e-21
-1.71384e-21
-7.94962e-21
-9.80974e-25
-3.77224e-21
-4.3145e-24
-1.0127e-36
8.65924e-37
-1.40282e-34
1.36849e-34
-8.20284e-33
6.0716e-33
-2.1189e-31
1.31757e-31
-2.32518e-30
1.34481e-30
-1.44708e-29
7.62734e-30
-6.75997e-29
3.06853e-29
-2.5685e-28
1.01836e-28
-7.35764e-28
2.73453e-28
-1.55927e-27
5.65465e-28
-2.73183e-27
9.36938e-28
-4.67583e-27
1.3869e-27
-9.25381e-27
2.14517e-27
-2.27627e-26
3.92537e-27
-6.10112e-26
8.09208e-27
-1.5097e-25
1.58337e-26
-3.28688e-25
2.63386e-26
-6.53942e-25
3.61604e-26
-1.26146e-24
3.89851e-26
-2.45761e-24
1.94791e-26
-4.85924e-24
-7.84026e-26
-9.62251e-24
-3.98655e-25
-1.89751e-23
-1.29203e-24
-3.7293e-23
-3.61421e-24
-7.34785e-23
-9.44076e-24
-1.46497e-22
-2.39326e-23
-2.98789e-22
-6.04243e-23
-6.30325e-22
-1.55031e-22
-1.38676e-21
-4.11115e-22
-3.18477e-21
-1.13996e-21
-7.55923e-21
-3.30743e-21
-1.80478e-20
-9.87754e-21
-4.05297e-20
-2.90214e-20
-7.26468e-20
-7.61605e-20
-7.86764e-20
-1.53173e-19
-4.13246e-20
-2.05091e-19
-7.95769e-23
-1.18211e-19
-4.18356e-22
-4.4053e-35
4.36217e-35
-4.86713e-33
4.9225e-33
-1.7416e-31
1.63614e-31
-5.04548e-30
3.78586e-30
-6.70912e-29
4.72689e-29
-4.95892e-28
3.25405e-28
-2.64695e-27
1.51796e-27
-1.11601e-26
5.58089e-27
-3.44013e-26
1.61484e-26
-7.47945e-26
3.47755e-26
-1.26492e-25
5.69023e-26
-1.9548e-25
7.84243e-26
-3.29091e-25
1.05747e-25
-7.09806e-25
1.65356e-25
-1.89411e-24
3.19554e-25
-4.99524e-24
6.471e-25
-1.14551e-23
1.13338e-24
-2.31128e-23
1.58362e-24
-4.36659e-23
1.64103e-24
-8.12462e-23
6.15932e-25
-1.50728e-22
-3.63312e-24
-2.78339e-22
-1.58025e-23
-5.09956e-22
-4.6528e-23
-9.249e-22
-1.19243e-22
-1.66577e-21
-2.84286e-22
-3.00668e-21
-6.52069e-22
-5.51237e-21
-1.47672e-21
-1.04334e-20
-3.38035e-21
-2.07222e-20
-8.0066e-21
-4.36248e-20
-2.00429e-20
-9.70299e-20
-5.35679e-20
-2.22641e-19
-1.51116e-19
-4.9262e-19
-4.30402e-19
-8.93557e-19
-1.12143e-18
-1.02059e-18
-2.28482e-18
-5.91306e-19
-3.15366e-18
-2.69367e-21
-2.13277e-18
-1.74627e-20
-1.42726e-33
1.43353e-33
-1.07007e-31
1.1009e-31
-3.29235e-30
3.29465e-30
-7.62403e-29
6.61251e-29
-1.2654e-27
1.03283e-27
-1.1529e-26
8.8454e-27
-7.34928e-26
4.96932e-26
-3.57601e-25
2.11405e-25
-1.2236e-24
6.82223e-25
-2.80907e-24
1.57211e-24
-4.7289e-24
2.61737e-24
-6.80179e-24
3.46745e-24
-9.78431e-24
4.17349e-24
-1.6934e-23
5.34893e-24
-4.05256e-23
8.67324e-24
-1.12148e-22
1.72262e-23
-2.77135e-22
3.21869e-23
-5.81279e-22
4.71452e-23
-1.09788e-21
4.86998e-23
-1.97915e-21
1.5101e-23
-3.47983e-21
-1.10497e-22
-6.03203e-21
-4.34682e-22
-1.0337e-20
-1.1818e-21
-1.74566e-20
-2.80653e-21
-2.90326e-20
-6.18338e-21
-4.78747e-20
-1.29956e-20
-7.93482e-20
-2.6665e-20
-1.34718e-19
-5.47292e-20
-2.39642e-19
-1.15485e-19
-4.55634e-19
-2.58023e-19
-9.32469e-19
-6.24253e-19
-2.02022e-18
-1.63392e-18
-4.34923e-18
-4.44727e-18
-7.9225e-18
-1.14211e-17
-9.38469e-18
-2.35324e-17
-5.78064e-18
-3.33237e-17
-5.27133e-20
-2.56721e-17
-4.11117e-19
-2.99022e-32
3.08181e-32
-1.83838e-30
1.91703e-30
-5.33642e-29
5.46592e-29
-1.0262e-27
1.01937e-27
-1.80328e-26
1.62394e-26
-2.14429e-25
1.84624e-25
-1.69603e-24
1.29952e-24
-9.72422e-24
6.57301e-24
-3.77304e-23
2.40992e-23
-9.43339e-23
6.08419e-23
-1.63141e-22
1.06261e-22
-2.24511e-22
1.3942e-22
-2.82921e-22
1.5438e-22
-3.76114e-22
1.62632e-22
-6.73017e-22
1.94784e-22
-1.80904e-21
3.28848e-22
-4.88117e-21
6.45131e-22
-1.09091e-20
1.01311e-21
-2.10755e-20
1.08071e-21
-3.75137e-20
3.17046e-22
-6.34396e-20
-2.45583e-21
-1.04151e-19
-9.16322e-21
-1.67825e-19
-2.34627e-20
-2.65373e-19
-5.21865e-20
-4.10567e-19
-1.07199e-19
-6.23499e-19
-2.08444e-19
-9.40608e-19
-3.91121e-19
-1.43741e-18
-7.23778e-19
-2.28374e-18
-1.3584e-18
-3.87915e-18
-2.68114e-18
-7.17982e-18
-5.75974e-18
-1.43952e-17
-1.36716e-17
-2.95904e-17
-3.47861e-17
-5.34123e-17
-8.65212e-17
-6.47927e-17
-1.78549e-16
-4.13525e-17
-2.58046e-16
-6.78762e-19
-2.22492e-16
-6.25514e-18
-6.02265e-31
6.30925e-31
-3.43469e-29
3.57685e-29
-9.81098e-28
1.00597e-27
-1.87151e-26
1.87694e-26
-2.79997e-25
2.71882e-25
-4.22186e-24
3.90186e-24
-4.06493e-23
3.50931e-23
-2.61507e-22
2.04466e-22
-1.15174e-21
8.37735e-22
-3.40082e-21
2.41718e-21
-6.89566e-21
4.89643e-21
-1.03945e-20
7.22181e-21
-1.29793e-20
8.33589e-21
-1.48871e-20
8.21016e-21
-1.75214e-20
7.49639e-21
-2.8044e-20
7.38874e-21
-6.80659e-20
1.07548e-20
-1.59318e-19
1.68188e-20
-3.17186e-19
1.8678e-20
-5.66562e-19
5.95194e-21
-9.39862e-19
-4.19492e-20
-1.4834e-18
-1.56376e-19
-2.26642e-18
-3.88777e-19
-3.37055e-18
-8.24475e-19
-4.87158e-18
-1.59312e-18
-6.85049e-18
-2.88161e-18
-9.4603e-18
-4.97039e-18
-1.30641e-17
-8.3147e-18
-1.85449e-17
-1.38314e-17
-2.79588e-17
-2.39027e-17
-4.61133e-17
-4.47659e-17
-8.38257e-17
-9.37783e-17
-1.60695e-16
-2.16566e-16
-2.81396e-16
-5.06593e-16
-3.44066e-16
-1.02273e-15
-2.23402e-16
-1.48817e-15
-6.22653e-18
-1.41213e-15
-6.71218e-17
-1.33875e-29
1.41057e-29
-7.78854e-28
7.98541e-28
-2.156e-26
2.19896e-26
-4.2113e-25
4.17919e-25
-6.39691e-24
6.20316e-24
-9.41549e-23
9.01144e-23
-9.73425e-22
9.5462e-22
-6.19575e-21
5.70778e-21
-2.85867e-20
2.40453e-20
-1.00097e-19
7.75095e-20
-2.6434e-19
1.9279e-19
-5.224e-19
3.64258e-19
-7.82496e-19
5.20109e-19
-9.42498e-19
5.72719e-19
-1.0125e-18
5.15628e-19
-1.03134e-18
4.08626e-19
-1.15276e-18
2.91597e-19
-1.92165e-18
2.56712e-19
-3.76631e-18
2.55593e-19
-6.81949e-18
9.76168e-20
-1.12071e-17
-5.50192e-19
-1.71475e-17
-2.08674e-18
-2.49795e-17
-5.05851e-18
-3.50169e-17
-1.0264e-17
-4.73183e-17
-1.87009e-17
-6.16981e-17
-3.1396e-17
-7.82885e-17
-4.95482e-17
-9.83753e-17
-7.51427e-17
-1.25725e-16
-1.12308e-16
-1.69062e-16
-1.71899e-16
-2.4738e-16
-2.83053e-16
-4.02286e-16
-5.18962e-16
-7.04447e-16
-1.06767e-15
-1.16691e-15
-2.28577e-15
-1.40145e-15
-4.37414e-15
-9.14259e-16
-6.24412e-15
-4.24065e-17
-6.17915e-15
-5.17254e-16
-2.03705e-28
2.22336e-28
-1.14769e-26
1.21435e-26
-3.11966e-25
3.2833e-25
-6.17996e-24
6.40194e-24
-9.74021e-23
9.86717e-23
-1.44571e-21
1.46143e-21
-1.44798e-20
1.58947e-20
-8.66315e-20
9.05859e-20
-3.91305e-19
3.68106e-19
-1.42757e-18
1.2006e-18
-4.09713e-18
3.16239e-18
-8.8678e-18
6.45399e-18
-1.42777e-17
9.88159e-18
-1.7715e-17
1.13596e-17
-1.81726e-17
1.02699e-17
-1.5293e-17
7.63001e-18
-1.56666e-17
4.69494e-18
-1.94576e-17
3.26953e-18
-3.52611e-17
2.80598e-18
-6.34737e-17
1.30287e-18
-1.00887e-16
-5.11968e-18
-1.4596e-16
-1.91257e-17
-1.98788e-16
-4.27039e-17
-2.59585e-16
-7.9444e-17
-3.2618e-16
-1.33897e-16
-3.93168e-16
-2.07716e-16
-4.60367e-16
-2.9849e-16
-5.36634e-16
-4.15303e-16
-6.33081e-16
-5.84361e-16
-7.80452e-16
-8.23872e-16
-1.03515e-15
-1.24497e-15
-1.52089e-15
-2.06806e-15
-2.42949e-15
-3.86211e-15
-3.7596e-15
-7.60013e-15
-4.32173e-15
-1.35556e-14
-2.80581e-15
-1.78662e-14
-2.10341e-16
-1.45736e-14
-2.61844e-15
-1.8138e-27
2.13251e-27
-9.70275e-26
1.08117e-25
-2.73937e-24
3.00071e-24
-5.37422e-23
5.86727e-23
-8.75329e-22
9.41094e-22
-1.38692e-20
1.52572e-20
-1.26802e-19
1.53291e-19
-6.94125e-19
7.99621e-19
-2.92807e-18
3.00458e-18
-1.01661e-17
9.21372e-18
-2.7893e-17
2.30233e-17
-5.73594e-17
4.45031e-17
-8.76679e-17
6.43473e-17
-1.04575e-16
7.04825e-17
-1.05114e-16
6.21651e-17
-9.05373e-17
4.49362e-17
-9.37169e-17
2.9349e-17
-1.265e-16
2.23181e-17
-2.3748e-16
2.1381e-17
-4.14669e-16
1.2193e-17
-6.15861e-16
-2.76527e-17
-8.09679e-16
-1.05786e-16
-9.92814e-16
-2.09289e-16
-1.17466e-15
-3.39347e-16
-1.35984e-15
-5.0835e-16
-1.52522e-15
-7.33423e-16
-1.67569e-15
-9.84409e-16
-1.86167e-15
-1.28488e-15
-2.10128e-15
-1.77756e-15
-2.46384e-15
-2.43485e-15
-3.08132e-15
-3.47528e-15
-4.22805e-15
-5.48014e-15
-6.31671e-15
-9.62929e-15
-9.33378e-15
-1.79291e-14
-9.98474e-15
-2.85986e-14
-6.71563e-15
-3.30732e-14
-7.27985e-16
-2.53112e-14
-6.99442e-15
-9.96454e-27
1.31033e-26
-5.62804e-25
6.51211e-25
-1.63206e-23
1.86759e-23
-2.95896e-22
3.45409e-22
-5.02092e-21
5.82344e-21
-8.58591e-20
1.04224e-19
-6.96329e-19
9.21946e-19
-3.43208e-18
4.32564e-18
-1.31975e-17
1.47192e-17
-4.18631e-17
4.09561e-17
-1.03775e-16
9.22629e-17
-1.91181e-16
1.59554e-16
-2.66404e-16
2.08019e-16
-3.01247e-16
2.12595e-16
-3.00081e-16
1.83443e-16
-2.97806e-16
1.39191e-16
-3.23634e-16
1.04523e-16
-5.03127e-16
9.40832e-17
-9.4179e-16
9.58426e-17
-1.59178e-15
6.26289e-17
-2.27415e-15
-6.25365e-17
-2.7811e-15
-3.18814e-16
-3.07672e-15
-6.20437e-16
-3.24692e-15
-9.0869e-16
-3.43033e-15
-1.17388e-15
-3.68788e-15
-1.54839e-15
-3.97086e-15
-2.06068e-15
-4.26571e-15
-2.60651e-15
-4.74151e-15
-3.02697e-15
-5.43629e-15
-4.14285e-15
-6.61071e-15
-5.91748e-15
-8.72914e-15
-9.19792e-15
-1.25141e-14
-1.59021e-14
-1.78447e-14
-2.84823e-14
-2.03341e-14
-4.48671e-14
-1.9011e-14
-4.87752e-14
-2.04401e-15
-5.78495e-14
-1.30864e-14
-4.28496e-26
6.17655e-26
-2.23863e-24
2.86785e-24
-6.53786e-23
8.23305e-23
-1.14673e-21
1.45406e-21
-2.11518e-20
2.61901e-20
-3.73381e-19
5.03001e-19
-2.7261e-18
3.9358e-18
-1.22038e-17
1.67887e-17
-4.18325e-17
5.13947e-17
-1.15001e-16
1.25344e-16
-2.43701e-16
2.42389e-16
-3.90067e-16
3.61041e-16
-4.95614e-16
4.21351e-16
-5.52156e-16
4.13887e-16
-5.91171e-16
3.73251e-16
-6.60176e-16
3.30538e-16
-8.83376e-16
3.11561e-16
-1.32762e-15
3.14748e-16
-2.05986e-15
2.78754e-16
-3.18521e-15
1.75869e-16
-4.61802e-15
-3.16952e-17
-5.9119e-15
-4.31026e-16
-6.4635e-15
-1.10933e-15
-6.38201e-15
-1.7351e-15
-6.24847e-15
-2.13135e-15
-6.61846e-15
-2.5345e-15
-7.62205e-15
-3.20647e-15
-8.69643e-15
-3.3684e-15
-9.96548e-15
-2.18552e-15
-1.12801e-14
-3.57945e-15
-1.32994e-14
-6.40957e-15
-1.66501e-14
-1.07827e-14
-2.20112e-14
-1.99931e-14
-3.07433e-14
-3.53732e-14
-5.36377e-14
-6.1135e-14
-7.09647e-14
-1.09119e-13
-7.52828e-15
-1.95071e-13
-3.91798e-14
-1.50264e-25
2.2469e-25
-6.84858e-24
9.58796e-24
-2.07291e-22
2.85124e-22
-3.74193e-21
5.0898e-21
-7.92677e-20
1.06079e-19