/*--------------------------------*- C++ -*----------------------------------*\
  =========                 |
  \\      /  F ield         | OpenFOAM: The Open Source CFD Toolbox
   \\    /   O peration     | Website:  https://openfoam.org
    \\  /    A nd           | Version:  7
     \\/     M anipulation  |
\*---------------------------------------------------------------------------*/
FoamFile
{
    version     2.0;
    format      ascii;
    class       volScalarField;
    location    "0.5";
    object      epsilon;
}
// * * * * * * * * * * * * * * * * * * * * * * * * * * * * * * * * * * * * * //

dimensions      [0 2 -3 0 0 0 0];

internalField   nonuniform List<scalar> 
9072
(
0.0232274
0.0742314
0.135039
0.204772
0.270803
0.331189
0.38732
0.443722
0.49659
0.54668
0.594458
0.640341
0.684659
0.727648
0.769449
0.810114
0.84962
0.887871
0.924712
0.959936
0.993287
1.02447
1.05315
1.07898
1.10157
1.12051
1.13537
1.14566
1.1507
1.15028
1.14668
1.13735
1.121
1.09661
1.06311
1.01943
0.964719
0.898949
0.823742
0.742247
0.660628
0.594276
0.535289
0.46355
0.395772
0.270165
0.0320673
0.0489391
0.0730335
0.10006
0.126436
0.151183
0.173845
0.194991
0.214841
0.233702
0.251814
0.269366
0.2865
0.303309
0.319847
0.336127
0.352135
0.367826
0.383136
0.397981
0.412261
0.425869
0.438686
0.450594
0.46147
0.471196
0.479661
0.486764
0.492422
0.496952
0.501303
0.504883
0.50751
0.509178
0.509941
0.509838
0.508832
0.506735
0.503124
0.496707
0.483488
0.4522
0.393468
0.32128
0.281432
0.303774
0.0436697
0.0454328
0.0627841
0.0822181
0.101195
0.118708
0.13435
0.148688
0.162028
0.174632
0.18671
0.198423
0.209888
0.221183
0.232353
0.243414
0.254358
0.26516
0.275777
0.286155
0.296231
0.305938
0.315204
0.323958
0.332136
0.33968
0.346546
0.352711
0.358196
0.363202
0.368214
0.373226
0.378351
0.383822
0.389965
0.397169
0.405834
0.416274
0.428463
0.441073
0.448339
0.437703
0.394943
0.341313
0.325579
0.43228
0.0515468
0.0461561
0.0606282
0.0769109
0.0926355
0.10684
0.11956
0.131116
0.141784
0.151803
0.161365
0.170618
0.179668
0.18859
0.197427
0.206197
0.214898
0.223515
0.232015
0.240361
0.248506
0.256401
0.263995
0.271243
0.278102
0.284544
0.290556
0.296149
0.301382
0.306424
0.311608
0.317093
0.323112
0.329992
0.338155
0.348088
0.3603
0.375201
0.3928
0.411748
0.426505
0.426075
0.401657
0.370736
0.378782
0.564204
0.05663
0.0486422
0.0614314
0.0756938
0.08921
0.101463
0.112465
0.122434
0.131603
0.140182
0.148343
0.15622
0.163913
0.17149
0.178992
0.186439
0.193834
0.201166
0.208411
0.215541
0.222519
0.229308
0.235872
0.242177
0.248199
0.253925
0.259361
0.26454
0.269541
0.274524
0.279761
0.285472
0.291942
0.299538
0.30871
0.319961
0.333793
0.350574
0.370222
0.39137
0.40929
0.415634
0.406402
0.397817
0.430142
0.706892
0.0605392
0.0523243
0.0637478
0.0762846
0.0881574
0.0989762
0.108744
0.117616
0.125783
0.133421
0.140678
0.147672
0.154492
0.161198
0.167831
0.17441
0.18094
0.187413
0.193813
0.200116
0.206294
0.212319
0.218164
0.223805
0.229231
0.234439
0.239449
0.24431
0.249112
0.254014
0.259262
0.265098
0.27183
0.279838
0.289569
0.301508
0.316113
0.333678
0.354035
0.375889
0.395522
0.407269
0.410714
0.422679
0.485738
0.867695
0.0664248
0.0569904
0.0669402
0.0779475
0.0884125
0.0980262
0.106784
0.1148
0.122216
0.129173
0.13579
0.142168
0.14838
0.15448
0.160504
0.16647
0.172385
0.178243
0.184032
0.189732
0.195324
0.200784
0.206093
0.211237
0.216211
0.221024
0.225706
0.230315
0.234951
0.239774
0.245015
0.250926
0.257821
0.266078
0.276128
0.288425
0.303376
0.32121
0.341719
0.363786
0.384712
0.401218
0.415545
0.446001
0.541424
1.02476
0.0733396
0.06227
0.0707245
0.0802739
0.0894394
0.0979644
0.105837
0.113128
0.119938
0.126365
0.132501
0.138423
0.14419
0.149848
0.155426
0.160941
0.166399
0.171796
0.177124
0.182368
0.187511
0.192537
0.197432
0.202189
0.20681
0.211313
0.215735
0.220142
0.224642
0.229394
0.234622
0.24058
0.247579
0.255987
0.266215
0.278684
0.293754
0.311613
0.332066
0.354243
0.376398
0.397236
0.421129
0.467642
0.591597
1.17425
0.0805426
0.0678668
0.0748346
0.0829722
0.0909067
0.0984207
0.10549
0.112146
0.118443
0.124439
0.130196
0.135767
0.141196
0.14652
0.151762
0.156935
0.162044
0.167088
0.172059
0.176947
0.181738
0.186422
0.19099
0.195439
0.19978
0.204035
0.208249
0.212495
0.216884
0.221576
0.22679
0.232777
0.239843
0.248341
0.258662
0.271193
0.286263
0.304039
0.324386
0.346718
0.370134
0.394932
0.427185
0.487482
0.63581
1.31282
0.0875469
0.0734814
0.0790118
0.0858031
0.0925771
0.0991535
0.105493
0.111586
0.11744
0.123077
0.128526
0.133818
0.138986
0.144051
0.149033
0.153942
0.15878
0.163548
0.168238
0.172843
0.177355
0.181765
0.18607
0.190273
0.194388
0.198444
0.202491
0.206608
0.210908
0.215552
0.220753
0.226758
0.233865
0.242415
0.252774
0.265305
0.280315
0.297975
0.318236
0.340808
0.365521
0.393922
0.433413
0.505614
0.675247
1.43529
0.093969
0.0787615
0.0830261
0.0885655
0.0942671
0.0999912
0.105678
0.111277
0.116751
0.122084
0.127279
0.132347
0.137306
0.142169
0.146947
0.151648
0.156274
0.160822
0.165289
0.169668
0.173955
0.178144
0.182237
0.18624
0.190173
0.194069
0.197983
0.201996
0.206226
0.210833
0.216023
0.222041
0.229174
0.237748
0.248113
0.260611
0.275537
0.293083
0.313303
0.336199
0.362215
0.393868
0.439618
0.522212
0.711616
1.55909
0.0995569
0.08359
0.0867005
0.0910943
0.0958325
0.100808
0.105931
0.111108
0.116259
0.121338
0.126322
0.131208
0.135998
0.1407
0.145317
0.149854
0.15431
0.158683
0.162971
0.167168
0.171272
0.175283
0.179203
0.183045
0.186831
0.190599
0.194407
0.198339
0.202516
0.207094
0.212278
0.218304
0.225453
0.234037
0.244389
0.256837
0.271675
0.289127
0.309358
0.332638
0.359922
0.394478
0.445601
0.537273
0.745839
1.6943
0.104205
0.0878614
0.0898948
0.0932577
0.0971633
0.101512
0.106173
0.111004
0.11589
0.120758
0.125569
0.130305
0.134959
0.139531
0.14402
0.148426
0.152746
0.156979
0.161122
0.165171
0.169128
0.172993
0.176774
0.180486
0.184154
0.18782
0.191545
0.195415
0.199551
0.204111
0.209291
0.215325
0.222484
0.231068
0.241399
0.253794
0.268552
0.285936
0.306223
0.329919
0.358397
0.39549
0.451145
0.550678
0.778255
1.83336
0.10797
0.0914702
0.0924904
0.0949541
0.0981818
0.102044
0.106352
0.110917
0.115594
0.120293
0.124962
0.129576
0.13412
0.138587
0.142973
0.147273
0.151485
0.155604
0.15963
0.16356
0.167397
0.171144
0.174813
0.178419
0.181994
0.18558
0.189241
0.193065
0.197174
0.201722
0.206904
0.212947
0.220113
0.228695
0.239002
0.251348
0.266039
0.283382
0.303758
0.327877
0.357438
0.396679
0.456007
0.562102
0.809204
1.98982
0.110923
0.0942782
0.0943802
0.0961135
0.0988458
0.102374
0.106443
0.11082
0.115342
0.119909
0.124465
0.128979
0.133434
0.137817
0.142119
0.146335
0.150459
0.154487
0.158418
0.162252
0.165991
0.169643
0.17322
0.176743
0.180244
0.183768
0.187382
0.191175
0.195268
0.199813
0.205001
0.211055
0.21823
0.22681
0.237096
0.249401
0.264043
0.28137
0.301856
0.326381
0.356883
0.397854
0.459902
0.57075
0.836685
2.18625
0.112408
0.0961198
0.0954786
0.0967055
0.0991527
0.102507
0.106444
0.110704
0.115118
0.119586
0.124053
0.128488
0.132871
0.137186
0.141421
0.145569
0.149622
0.153577
0.157431
0.161186
0.164846
0.168421
0.171926
0.175383
0.178826
0.182305
0.185885
0.189659
0.193746
0.198297
0.203497
0.209566
0.216754
0.225337
0.23561
0.247886
0.262497
0.279829
0.300437
0.32533
0.356615
0.398879
0.462554
0.575084
0.85105
2.53567
0.116647
0.414335
0.557562
0.561598
2.40097
0.562994
0.559773
0.566515
2.40881
2.70465
3.00096
3.29094
3.56587
3.8201
4.05063
4.25812
4.44664
4.62252
4.79264
4.96271
5.13624
5.31171
5.47816
5.62561
5.74214
5.81516
5.8327
5.78494
5.66542
5.47138
5.20353
4.86176
4.43702
3.9162
3.27634
2.57338
0.320647
0.0486302
0.317372
0.511392
0.665553
0.816117
0.870113
0.842231
0.930566
1.01489
1.24218
1.28684
1.31448
1.32797
1.33261
1.33173
1.32912
1.32879
1.33417
1.34749
1.36959
1.40045
1.4399
1.48855
1.53685
1.58183
1.62033
1.64915
1.66536
1.66654
1.65108
1.61819
1.56784
1.49951
1.40902
1.28512
1.09726
0.767653
0.426998
0.130433
0.582693
0.595863
0.692192
0.730314
0.737604
0.746723
0.772327
0.802783
0.831351
0.828044
0.820837
0.810438
0.799515
0.790566
0.785932
0.787298
0.7955
0.810671
0.832569
0.860878
0.895314
0.934235
0.974982
1.01605
1.05581
1.09257
1.12471
1.15082
1.16996
1.18188
1.18696
1.18549
1.17545
1.14838
1.0814
0.925526
0.66227
0.264435
0.822376
0.663124
0.704091
0.69889
0.687313
0.68376
0.686435
0.689221
0.686611
0.67616
0.664853
0.654191
0.646116
0.642372
0.644232
0.652217
0.666201
0.685788
0.710698
0.740903
0.7765
0.816367
0.859544
0.905205
0.952372
0.999994
1.04702
1.09249
1.13584
1.17732
1.21803
1.25924
1.30026
1.33359
1.33555
1.25082
0.988874
0.482926
1.04006
0.720678
0.715601
0.687702
0.664379
0.652626
0.647287
0.643269
0.637569
0.630049
0.623102
0.618313
0.617235
0.621147
0.630709
0.645768
0.665619
0.689585
0.717536
0.749982
0.787728
0.830343
0.877714
0.929552
0.985374
1.04464
1.10677
1.17126
1.238
1.30786
1.38288
1.46555
1.55623
1.64724
1.71052
1.67606
1.41579
0.804994
1.23994
0.771597
0.729393
0.687436
0.657771
0.643394
0.638155
0.636999
0.637124
0.637937
0.640366
0.645697
0.655198
0.669781
0.689543
0.713577
0.740424
0.768992
0.799377
0.832948
0.871679
0.916001
0.966596
1.02376
1.08752
1.15788
1.23484
1.31841
1.40907
1.50857
1.62021
1.748
1.89358
2.0489
2.1805
2.20205
1.95283
1.25202
1.42474
0.816747
0.744557
0.693666
0.662108
0.64992
0.65045
0.658349
0.670278
0.684824
0.702067
0.722859
0.748155
0.77842
0.812932
0.849571
0.885573
0.91904
0.950327
0.982169
1.01845
1.06093
1.1113
1.17056
1.23937
1.31835
1.40824
1.50975
1.62411
1.75422
1.90514
2.08294
2.29104
2.52114
2.73335
2.82231
2.59459
1.83448
1.59617
0.856479
0.759652
0.703699
0.67444
0.669211
0.680868
0.703703
0.733754
0.768753
0.807969
0.851693
0.90045
0.954033
1.01041
1.06544
1.11407
1.15289
1.18245
1.20757
1.2352
1.26938
1.31311
1.36838
1.43655
1.51908
1.61762
1.73375
1.86962
2.02961
2.22115
2.45301
2.7309
3.04633
3.35136
3.51774
3.32025
2.54455
1.75544
0.891083
0.773535
0.715959
0.693361
0.700351
0.729149
0.773758
0.829721
0.89393
0.964696
1.04152
1.12431
1.21188
1.30024
1.3821
1.44873
1.49402
1.51845
1.52976
1.53945
1.55554
1.58283
1.62456
1.68299
1.76064
1.86036
1.9848
2.13706
2.32328
2.55387
2.84104
3.1933
3.60184
4.00888
4.25901
4.09716
3.3548
1.90369
0.920838
0.785483
0.72971
0.718581
0.743845
0.796926
0.871668
0.963323
1.06792
1.1825
1.30538
1.43552
1.5705
1.70379
1.82377
1.91631
1.97094
1.98727
1.97658
1.95654
1.94175
1.93935
1.95419
1.98979
2.05003
2.1395
2.26215
2.42188
2.62652
2.89013
3.22921
3.65552
4.16006
4.6738
5.01011
4.88578
4.22252
2.04238
0.946097
0.795241
0.744972
0.750747
0.801305
0.887112
1.00199
1.1411
1.29951
1.47246
1.65637
1.84878
2.04591
2.23855
2.40999
2.5392
2.60923
2.61727
2.57793
2.51616
2.45632
2.40859
2.3799
2.37539
2.40105
2.46407
2.57032
2.72409
2.93426
3.21901
3.60021
4.0935
4.69025
5.31001
5.73153
5.64385
5.09672
2.17373
0.967504
0.803161
0.762598
0.791452
0.875307
1.00342
1.16963
1.3692
1.59609
1.84295
2.10311
2.37197
2.64453
2.90957
3.14579
3.32451
3.4203
3.42551
3.35655
3.24541
3.12854
3.02048
2.93028
2.86522
2.83444
2.84954
2.91981
3.0494
3.24669
3.53397
3.93989
4.4849
5.16191
5.88047
6.38295
6.32952
5.92547
2.30142
0.986354
0.810516
0.784547
0.843423
0.969348
1.14983
1.37855
1.65107
1.96022
2.29515
2.64442
3.00005
3.35618
3.70144
4.01227
4.25343
4.38956
4.40516
4.31563
4.15842
3.97941
3.80176
3.63505
3.48885
3.37661
3.31722
3.32686
3.40972
3.57074
3.83527
4.24058
4.81322
5.54929
6.35162
6.92666
6.90433
6.66299
2.43119
1.00512
0.820113
0.814449
0.910944
1.08787
1.32987
1.62996
1.98446
2.38561
2.81834
3.26422
3.70994
4.14908
4.57317
4.96113
5.27463
5.46806
5.515
5.42606
5.24124
5.00812
4.76365
4.5148
4.27246
4.05465
3.89107
3.81125
3.82191
3.92019
4.13138
4.50392
5.07225
5.8371
6.69923
7.33275
7.33811
7.27601
2.57332
1.02772
0.837511
0.858665
1.00058
1.23628
1.5457
1.9204
2.3585
2.85336
3.38571
3.92746
4.45725
4.96786
5.4573
5.91434
6.30373
6.57059
6.6747
6.61751
6.43612
6.17668
5.88484
5.56379
5.2235
4.88441
4.58887
4.3896
4.30281
4.31256
4.43775
4.7414
5.26885
6.02555
6.9147
7.58454
7.6141
7.74884
2.75141
1.06009
0.873165
0.927871
1.12185
1.42045
1.79645
2.23936
2.75101
3.3292
3.95164
4.57775
5.17499
5.73411
6.26236
6.76784
7.22765
7.57967
7.76674
7.77712
7.63981
7.39688
7.09286
6.72705
6.30626
5.84812
5.40373
5.06027
4.85727
4.75992
4.76993
4.96939
5.42047
6.13094
7.00885
7.68425
7.72962
8.08636
0.111896
0.097098
0.0958341
0.0967744
0.0991382
0.102454
0.106334
0.110511
0.114822
0.119184
0.123549
0.127891
0.132186
0.136417
0.140569
0.144632
0.148597
0.152459
0.156217
0.159872
0.163432
0.166908
0.17032
0.173693
0.177065
0.180488
0.184031
0.187786
0.191871
0.196438
0.201666
0.207768
0.214986
0.223587
0.233857
0.246111
0.260703
0.278072
0.298875
0.324276
0.356531
0.40016
0.464594
0.571848
0.788969
1.42953
0.105525
0.0948268
0.0937855
0.095385
0.0983118
0.101963
0.10599
0.110191
0.114463
0.11876
0.123055
0.127328
0.131558
0.135725
0.139814
0.143812
0.14771
0.151501
0.155184
0.15876
0.162239
0.165636
0.168974
0.172283
0.175606
0.178998
0.182531
0.186299
0.19042
0.195041
0.200339
0.206519
0.213814
0.222483
0.232805
0.2451
0.25974
0.277209
0.298233
0.324055
0.356929
0.401003
0.464072
0.561525
0.727252
1.04623
0.0978939
0.0900153
0.0909471
0.0939461
0.0976403
0.101657
0.105817
0.110035
0.11428
0.118539
0.122794
0.127027
0.131216
0.135345
0.139396
0.143358
0.147221
0.150978
0.154629
0.158171
0.161612
0.16497
0.168271
0.17155
0.174853
0.178241
0.181789
0.185595
0.189775
0.194474
0.199865
0.206148
0.213552
0.222327
0.232749
0.245136
0.259873
0.277456
0.298633
0.324651
0.357659
0.401386
0.46232
0.551821
0.689836
0.907073
0.0267158
0.0898642
0.0912777
0.0941609
0.0979204
0.102203
0.106334
0.110459
0.11462
0.118811
0.123011
0.127192
0.131332
0.135415
0.139426
0.143354
0.147186
0.150919
0.154554
0.158085
0.161506
0.164843
0.168127
0.171395
0.174696
0.178092
0.181666
0.185525
0.189787
0.194591
0.200106
0.206531
0.214087
0.223016
0.233599
0.246144
0.261016
0.278708
0.299958
0.325949
0.358653
0.401332
0.459356
0.541399
0.660712
0.832592
0.283411
0.14178
0.125635
0.121226
0.117287
0.112999
0.11157
0.113185
0.116217
0.119832
0.1237
0.127675
0.131681
0.135672
0.139619
0.143498
0.147293
0.150995
0.154732
0.158482
0.16188
0.165201
0.168485
0.17177
0.175106
0.178548
0.182171
0.186102
0.190445
0.195362
0.201024
0.207654
0.215425
0.224556
0.235399
0.248202
0.263237
0.281027
0.302273
0.328043
0.360058
0.401052
0.45531
0.529312
0.631972
0.771921
0.496497
0.229006
0.192092
0.177562
0.168553
0.162719
0.159014
0.156949
0.156136
0.156257
0.15706
0.15834
0.159932
0.161694
0.163492
0.165162
0.166454
0.166893
0.165461
0.162264
0.16348
0.166096
0.169051
0.172148
0.175362
0.178718
0.182374
0.186742
0.191468
0.196828
0.203071
0.210062
0.217762
0.22697
0.238277
0.251517
0.266667
0.284541
0.305774
0.331214
0.362296
0.40117
0.451094
0.516685
0.603689
0.716846
0.525858
0.252108
0.216016
0.20266
0.195498
0.190723
0.187213
0.184619
0.182837
0.181802
0.181423
0.181584
0.182169
0.183063
0.184164
0.185371
0.186579
0.187692
0.188716
0.190216
0.192751
0.19583
0.19911
0.202386
0.205399
0.207485
0.206523
0.19517
0.193279
0.197475
0.203704
0.211548
0.220108
0.231026
0.24379
0.256707
0.271377
0.289327
0.310655
0.335796
0.365927
0.402544
0.44804
0.505529
0.578451
0.669058
0.501513
0.257305
0.225699
0.21633
0.211751
0.20866
0.206197
0.204167
0.202591
0.201516
0.200957
0.200887
0.201258
0.202016
0.203113
0.204507
0.206175
0.208112
0.210357
0.213042
0.21625
0.219895
0.223844
0.227945
0.231969
0.235453
0.237503
0.237423
0.239132
0.24154
0.240183
0.222513
0.222024
0.232114
0.248243
0.262696
0.278292
0.296266
0.317302
0.342091
0.371438
0.405873
0.447325
0.497641
0.558612
0.631018
0.480251
0.260532
0.231506
0.223872
0.220775
0.218967
0.217617
0.216531
0.215719
0.215239
0.215138
0.215436
0.216133
0.217221
0.218689
0.220533
0.222753
0.225358
0.228365
0.231816
0.235754
0.240192
0.245089
0.250362
0.255861
0.26132
0.266379
0.271069
0.276289
0.281505
0.284613
0.283869
0.284978
0.285075
0.269761
0.264618
0.28158
0.30272
0.326683
0.352681
0.380038
0.411747
0.449759
0.494056
0.545323
0.603781
0.467681
0.265124
0.236009
0.228048
0.22523
0.224061
0.223539
0.223352
0.223423
0.223764
0.224402
0.225364
0.22667
0.228335
0.230371
0.232795
0.235627
0.238888
0.242611
0.246839
0.251631
0.257029
0.263046
0.269649
0.276759
0.284224
0.291874
0.299724
0.30797
0.31634
0.323905
0.330308
0.336668
0.341482
0.340785
0.3369
0.319655
0.307803
0.330157
0.360841
0.390238
0.422654
0.458107
0.496479
0.539284
0.587136
0.465082
0.27123
0.239453
0.229958
0.22659
0.225502
0.225448
0.225949
0.226814
0.227978
0.229423
0.231158
0.233197
0.235562
0.238279
0.241378
0.244893
0.248868
0.253354
0.258413
0.26412
0.270538
0.277711
0.285647
0.294314
0.303632
0.313504
0.3239
0.334818
0.346105
0.357351
0.368376
0.379385
0.389679
0.397738
0.403175
0.404685
0.405008
0.40702
0.378448
0.392291
0.428593
0.468461
0.505721
0.543606
0.582828
0.466164
0.276754
0.241601
0.230088
0.225735
0.224351
0.224451
0.225396
0.22688
0.228757
0.230956
0.233454
0.236249
0.239358
0.242807
0.246634
0.250887
0.255622
0.260907
0.266822
0.27345
0.280876
0.289161
0.298346
0.308434
0.319393
0.331169
0.343721
0.357002
0.370857
0.385121
0.399647
0.414424
0.429123
0.443026
0.455647
0.466798
0.476994
0.485655
0.487311
0.49373
0.498972
0.475917
0.508577
0.549456
0.587508
0.470179
0.28118
0.242411
0.228774
0.223269
0.221375
0.221402
0.222571
0.224482
0.226916
0.229753
0.232935
0.236439
0.240268
0.244447
0.249011
0.254015
0.259522
0.265611
0.272369
0.279892
0.288273
0.297591
0.307909
0.319257
0.33164
0.345034
0.359406
0.374703
0.390795
0.407563
0.424901
0.442729
0.460845
0.478858
0.496438
0.513483
0.530063
0.545768
0.559485
0.573451
0.585735
0.58949
0.597984
0.580043
0.591787
0.477532
0.284563
0.242031
0.226314
0.219632
0.217129
0.216932
0.218154
0.220316
0.223144
0.226478
0.230228
0.23435
0.238834
0.243693
0.248962
0.254691
0.260948
0.267814
0.275382
0.283751
0.29302
0.303283
0.314614
0.327069
0.340676
0.355437
0.371336
0.388327
0.406319
0.425166
0.444804
0.465123
0.485956
0.507041
0.528129
0.549093
0.569902
0.590399
0.610249
0.629968
0.64906
0.665065
0.680038
0.691567
0.704872
0.487768
0.286945
0.240636
0.22296
0.215149
0.212003
0.211493
0.21264
0.214909
0.217983
0.221673
0.225863
0.230492
0.235535
0.240996
0.246903
0.253302
0.260259
0.267854
0.276178
0.285334
0.295422
0.306542
0.318781
0.332206
0.346867
0.362786
0.379962
0.398364
0.417924
0.43853
0.460051
0.482411
0.505449
0.528949
0.55269
0.576505
0.60029
0.623938
0.647323
0.670601
0.693649
0.715352
0.735845
0.755425
0.774395
0.499788
0.288293
0.238367
0.218908
0.210052
0.206274
0.205402
0.206387
0.208649
0.211844
0.215759
0.220263
0.22528
0.230774
0.23674
0.243198
0.25019
0.257776
0.266032
0.275048
0.284922
0.295756
0.307653
0.320703
0.334986
0.350563
0.367472
0.385726
0.405307
0.426167
0.448215
0.47133
0.495375
0.520227
0.545685
0.571535
0.597578
0.623648
0.649602
0.675317
0.700787
0.725916
0.750182
0.773382
0.795471
0.816156
0.512285
0.288566
0.235338
0.214308
0.204517
0.200139
0.198885
0.199649
0.20182
0.205033
0.209062
0.213764
0.219053
0.224885
0.23125
0.238159
0.24565
0.253778
0.262613
0.272241
0.282757
0.294261
0.306852
0.320628
0.335671
0.352051
0.369816
0.388992
0.409573
0.431523
0.45477
0.479208
0.504698
0.53107
0.558159
0.585748
0.613618
0.641559
0.669377
0.6969
0.72401
0.750562
0.776248
0.800848
0.824243
0.846276
0.524084
0.287769
0.231658
0.209287
0.198676
0.193745
0.192109
0.192616
0.194634
0.197785
0.201832
0.206628
0.212081
0.218143
0.224797
0.232052
0.239939
0.248509
0.257829
0.267979
0.279048
0.291135
0.304337
0.31875
0.334462
0.351545
0.370057
0.390029
0.411469
0.43435
0.458614
0.484166
0.510876
0.538578
0.567069
0.596145
0.625577
0.655126
0.684556
0.713647
0.742204
0.770035
0.796897
0.822583
0.846962
0.869922
0.534307
0.285967
0.22744
0.203955
0.192642
0.187212
0.185205
0.185435
0.187256
0.19028
0.194269
0.19907
0.20459
0.210777
0.217614
0.225106
0.233282
0.242189
0.251889
0.262457
0.273982
0.286555
0.300274
0.315231
0.331517
0.349207
0.368362
0.389022
0.411202
0.434885
0.460023
0.486531
0.514288
0.543134
0.572874
0.603278
0.634098
0.665089
0.695983
0.726524
0.756467
0.785582
0.813632
0.84041
0.86576
0.889558
0.542414
0.283272
0.2228
0.198413
0.186509
0.180636
0.178276
0.178222
0.179816
0.182666
0.186533
0.191263
0.196764
0.202984
0.209903
0.217528
0.225884
0.235017
0.244986
0.255865
0.267735
0.280688
0.294817
0.310215
0.326972
0.345165
0.364859
0.3861
0.408909
0.433278
0.459168
0.486502
0.515169
0.545016
0.575852
0.607451
0.639557
0.671885
0.704154
0.736088
0.767404
0.79784
0.827145
0.855096
0.881505
0.906216
0.548151
0.279823
0.217847
0.192751
0.180359
0.174099
0.17141
0.171072
0.172419
0.175061
0.178755
0.183353
0.18876
0.194929
0.20184
0.209499
0.217931
0.227182
0.237308
0.248382
0.260483
0.2737
0.288125
0.30385
0.320964
0.339547
0.359667
0.381375
0.404698
0.429636
0.456158
0.484198
0.513651
0.544372
0.576178
0.608844
0.642113
0.675699
0.709298
0.742591
0.775278
0.807074
0.837704
0.866916
0.894492
0.920237
0.551482
0.275757
0.21268
0.187046
0.17426
0.167664
0.164675
0.16406
0.165152
0.16756
0.171045
0.17546
0.180713
0.186759
0.19358
0.201183
0.209595
0.218859
0.229034
0.24019
0.252405
0.265767
0.280367
0.296296
0.313645
0.332495
0.352918
0.374969
0.398681
0.424063
0.451093
0.479711
0.509824
0.541295
0.573947
0.60756
0.64188
0.676615
0.711455
0.74607
0.780132
0.813316
0.845321
0.875869
0.90471
0.931612
0.552518
0.271208
0.207383
0.181359
0.168263
0.161386
0.158125
0.157246
0.158081
0.160241
0.16349
0.167683
0.172734
0.178597
0.185259
0.192727
0.201031
0.210215
0.220337
0.231466
0.243682
0.257071
0.271724
0.287733
0.305189
0.324177
0.344772
0.367033
0.391001
0.416692
0.444092
0.473154
0.503792
0.535878
0.569245
0.603678
0.638926
0.674699
0.71068
0.74653
0.781906
0.816463
0.849872
0.881816
0.912
0.940161
0.551459
0.266289
0.202022
0.175739
0.162412
0.155301
0.151801
0.150675
0.151258
0.153164
0.15616
0.160105
0.164915
0.170549
0.176994
0.184263
0.192383
0.201403
0.211379
0.222384
0.234494
0.247799
0.262388
0.278355
0.295792
0.314788
0.335421
0.357756
0.38184
0.407699
0.435327
0.464687
0.495704
0.528261
0.562199
0.597312
0.633354
0.670037
0.707041
0.744022
0.780622
0.816483
0.85125
0.884582
0.916152
0.945658
0.548554
0.261099
0.19665
0.170224
0.156734
0.149438
0.145731
0.144379
0.144721
0.146374
0.149109
0.152788
0.157332
0.162701
0.168886
0.1759
0.183776
0.192561
0.202313
0.213106
0.225017
0.238136
0.252554
0.268365
0.285665
0.304544
0.325086
0.347361
0.371425
0.397309
0.42502
0.45453
0.485776
0.518652
0.553009
0.588652
0.62534
0.662789
0.700682
0.738668
0.776382
0.813451
0.849502
0.88417
0.9171
0.947959
0.544069
0.255718
0.191308
0.164839
0.151251
0.143816
0.139935
0.13838
0.138495
0.139902
0.142376
0.145781
0.150042
0.155122
0.161015
0.167735
0.175318
0.183811
0.193276
0.203784
0.215417
0.228263
0.242415
0.25797
0.275026
0.293676
0.314008
0.3361
0.360013
0.385789
0.413443
0.44296
0.474287
0.507332
0.541956
0.577974
0.615155
0.653221
0.691856
0.730709
0.769409
0.807571
0.844809
0.880736
0.914976
0.947165
0.538273
0.250216
0.186029
0.159604
0.145977
0.138445
0.134423
0.13269
0.132597
0.13377
0.135988
0.139118
0.143089
0.147867
0.153446
0.159846
0.1671
0.175259
0.184386
0.194554
0.205844
0.218346
0.232155
0.24737
0.264091
0.282415
0.302436
0.324235
0.347884
0.373432
0.400905
0.430299
0.461572
0.494646
0.529393
0.56564
0.603166
0.6417
0.680932
0.720511
0.760063
0.799197
0.837513
0.87461
0.910092
0.943572
0.531427
0.244651
0.180838
0.154534
0.140919
0.13333
0.129199
0.127315
0.127034
0.127989
0.129961
0.132823
0.136505
0.140975
0.146231
0.152292
0.159196
0.166993
0.175747
0.185533
0.196433
0.208538
0.221944
0.236753
0.253067
0.270988
0.290613
0.312033
0.335324
0.360545
0.387732
0.416893
0.447998
0.480981
0.515727
0.552075
0.589814
0.628684
0.668379
0.708554
0.748833
0.788822
0.828113
0.866294
0.902951
0.937679
0.523778
0.239072
0.175757
0.149639
0.136084
0.128475
0.124266
0.122256
0.121809
0.122563
0.124304
0.126908
0.130307
0.134472
0.139403
0.14512
0.151662
0.159081
0.167442
0.176819
0.187297
0.198967
0.211929
0.226285
0.242141
0.259602
0.278772
0.299746
0.322609
0.347429
0.374251
0.403095
0.433944
0.466743
0.501391
0.537739
0.575588
0.614686
0.654737
0.695402
0.736307
0.777056
0.81724
0.856437
0.894223
0.930174
0.515554
0.233525
0.170806
0.14493
0.131474
0.123879
0.119619
0.117508
0.116918
0.117491
0.119018
0.121378
0.124506
0.128375
0.132986
0.138362
0.144541
0.151576
0.159534
0.16849
0.178529
0.189744
0.202236
0.216111
0.231476
0.248442
0.267118
0.287604
0.309994
0.334364
0.360771
0.389244
0.41978
0.452335
0.486821
0.523103
0.560991
0.600247
0.640582
0.681666
0.723131
0.764583
0.805613
0.845796
0.884701
0.921892
0.506967
0.228053
0.166006
0.140416
0.127095
0.119542
0.115257
0.113068
0.112355
0.112767
0.114099
0.116233
0.119105
0.122691
0.126994
0.132036
0.137858
0.144515
0.152071
0.160604
0.1702
0.180954
0.192968
0.206349
0.22121
0.237666
0.255829
0.275808
0.297704
0.321603
0.347571
0.375649
0.405846
0.438131
0.472428
0.508613
0.546511
0.585894
0.626485
0.667961
0.709966
0.752111
0.793991
0.835184
0.875256
0.913763
0.498208
0.222697
0.161374
0.136107
0.122948
0.115461
0.111174
0.108928
0.108113
0.108384
0.109539
0.111464
0.114098
0.117419
0.121428
0.126152
0.131631
0.137919
0.145084
0.153203
0.162363
0.172661
0.1842
0.197092
0.211451
0.227397
0.245049
0.264522
0.285926
0.309356
0.334889
0.362576
0.39244
0.42446
0.458575
0.494674
0.532592
0.572115
0.612977
0.654869
0.697444
0.740327
0.783121
0.825412
0.866771
0.90675
0.48945
0.217494
0.156931
0.132013
0.119039
0.111638
0.107366
0.105082
0.104183
0.104331
0.105328
0.107064
0.109479
0.112551
0.116287
0.12071
0.125863
0.1318
0.13859
0.146311
0.155051
0.164908
0.175988
0.188404
0.202277
0.217729
0.234888
0.253874
0.274807
0.297791
0.322914
0.350241
0.379803
0.411596
0.44557
0.481625
0.519613
0.55933
0.600525
0.642902
0.686131
0.729853
0.773688
0.817237
0.860082
0.901783
0.480847
0.212482
0.152696
0.128145
0.11537
0.10807
0.10383
0.101522
0.100555
0.100597
0.101455
0.103019
0.105234
0.108079
0.11156
0.115703
0.12055
0.126158
0.132594
0.139938
0.14828
0.157718
0.168362
0.180328
0.19374
0.208727
0.225422
0.243954
0.264452
0.28703
0.311788
0.338803
0.36812
0.399746
0.433646
0.469733
0.507871
0.547871
0.589499
0.632476
0.676491
0.721208
0.766272
0.811308
0.855922
0.899689
0.472537
0.207696
0.14869
0.124514
0.111949
0.104759
0.100561
0.0982419
0.0972213
0.0971721
0.0979061
0.0993168
0.10135
0.103986
0.107234
0.111118
0.115682
0.120984
0.127091
0.134083
0.142053
0.1511
0.161337
0.172884
0.185868
0.200426
0.216695
0.234816
0.254926
0.27715
0.301602
0.328369
0.357512
0.389051
0.422964
0.459179
0.497573
0.537975
0.580167
0.623891
0.668864
0.714777
0.761311
0.808128
0.854868
0.901137
0.464641
0.20317
0.144931
0.121131
0.108779
0.101706
0.0975563
0.0952358
0.094172
0.0940445
0.0946691
0.0959422
0.0978111
0.100258
0.103292
0.10694
0.111244
0.116263
0.122066
0.128735
0.136361
0.145048
0.15491
0.166072
0.178667
0.192835
0.208724
0.226483
0.246258
0.268188
0.292399
0.318993
0.348043
0.379585
0.413611
0.450064
0.488837
0.529775
0.572682
0.617325
0.663452
0.710795
0.759077
0.808014
0.857298
0.906579
0.457264
0.198938
0.141439
0.118009
0.105868
0.0989114
0.0948145
0.092498
0.091399
0.0912034
0.091731
0.0928805
0.0946014
0.0968772
0.0997168
0.103148
0.107216
0.111977
0.117502
0.123874
0.131186
0.139544
0.149066
0.15988
0.172123
0.185946
0.201501
0.218948
0.238445
0.260144
0.284184
0.31068
0.339723
0.371363
0.405606
0.442413
0.481691
0.523307
0.567086
0.612828
0.660317
0.709335
0.759664
0.811086
0.863365
0.916219
0.450499
0.19503
0.138233
0.115158
0.10322
0.0963774
0.0923329
0.0900231
0.0888945
0.0886385
0.089079
0.0901172
0.0917041
0.0938245
0.096488
0.0997232
0.103575
0.108101
0.113374
0.119476
0.126503
0.134564
0.143779
0.15428
0.166212
0.179731
0.194998
0.212185
0.23146
0.252988
0.276924
0.303399
0.332517
0.364346
0.398908
0.436179
0.476086
0.518516
0.563321
0.610335
0.659389
0.710322
0.76299
0.81726
0.872991
0.929994
0.444425
0.191474
0.135329
0.112588
0.100841
0.0941054
0.09011
0.0878067
0.0866509
0.0863398
0.0867008
0.0876376
0.0891027
0.0910819
0.0935854
0.0966424
0.100298
0.104611
0.109655
0.115512
0.122283
0.130075
0.139015
0.149238
0.160896
0.174151
0.189174
0.206147
0.225252
0.246667
0.270561
0.297082
0.326352
0.358453
0.393426
0.431262
0.471909
0.515274
0.561241
0.609682
0.660479
0.713542
0.768813
0.826265
0.885875
0.947577
0.439109
0.188297
0.132745
0.11031
0.0987374
0.092097
0.0881439
0.085844
0.0846611
0.0842979
0.0845848
0.085428
0.0867812
0.0886312
0.0909888
0.0938836
0.0973611
0.101481
0.106317
0.111953
0.118491
0.126043
0.134737
0.144714
0.156131
0.169157
0.183976
0.200777
0.219757
0.241108
0.265015
0.291643
0.321129
0.353573
0.389033
0.427519
0.468996
0.513397
0.560635
0.610625
0.663309
0.718672
0.776759
0.837667
0.901518
0.9684
0.434607
0.185521
0.130493
0.108332
0.0969126
0.0903533
0.0864331
0.084131
0.0829186
0.0825036
0.0827197
0.0834748
0.0847241
0.0864548
0.0886784
0.0914247
0.0947397
0.0986836
0.10333
0.108767
0.115095
0.12243
0.130903
0.140661
0.151866
0.164697
0.179343
0.196009
0.214902
0.23623
0.260194
0.286975
0.316728
0.349572
0.385578
0.424776
0.467151
0.512659
0.561245
0.612868
0.667532
0.725309
0.786354
0.850908
0.919262
0.991691
0.430967
0.183166
0.128587
0.106662
0.0953709
0.0888753
0.0849757
0.0826632
0.0814167
0.0809484
0.0810947
0.0817653
0.0829163
0.0845357
0.0866349
0.0892444
0.0924101
0.0961928
0.100667
0.105921
0.112059
0.119198
0.127472
0.137034
0.148052
0.160712
0.175214
0.191772
0.210607
0.231944
0.255997
0.282966
0.313023
0.346303
0.382896
0.422847
0.466161
0.512816
0.562789
0.616084
0.672767
0.732999
0.797059
0.865341
0.938331
1.01652
0.428225
0.181251
0.127038
0.105306
0.0941153
0.0876633
0.0837697
0.0814365
0.0801491
0.0796238
0.0796994
0.0802871
0.0813437
0.0828575
0.0848402
0.087322
0.0903494
0.0939833
0.0982989
0.103386
0.109349
0.116308
0.124402
0.133787
0.144638
0.157146
0.171524
0.187994
0.206793
0.228159
0.252322
0.2795
0.309881
0.343618
0.380816
0.421538
0.465805
0.513618
0.564979
0.619937
0.678618
0.741274
0.808307
0.880278
0.95788
1.04184
0.42641
0.179788