/*--------------------------------*- C++ -*----------------------------------*\
  =========                 |
  \\      /  F ield         | OpenFOAM: The Open Source CFD Toolbox
   \\    /   O peration     | Website:  https://openfoam.org
    \\  /    A nd           | Version:  7
     \\/     M anipulation  |
\*---------------------------------------------------------------------------*/
FoamFile
{
    version     2.0;
    format      ascii;
    class       volScalarField;
    location    "0.5";
    object      k;
}
// * * * * * * * * * * * * * * * * * * * * * * * * * * * * * * * * * * * * * //

dimensions      [0 2 -2 0 0 0 0];

internalField   nonuniform List<scalar> 
9072
(
0.00240369
0.00425292
0.00633735
0.00836406
0.0100771
0.0115239
0.0127885
0.0140004
0.0150902
0.0160873
0.0170099
0.0178725
0.018686
0.0194581
0.0201941
0.0208971
0.0215687
0.0222089
0.0228167
0.0233902
0.0239268
0.024423
0.0248751
0.0252787
0.0256291
0.0259211
0.0261491
0.0263065
0.0263834
0.0263765
0.0263214
0.0261783
0.0259271
0.0255499
0.0250269
0.0243363
0.0234565
0.0223762
0.0211072
0.0196861
0.0182067
0.0169633
0.0158274
0.0143805
0.0129373
0.0100235
0.00400669
0.0086984
0.0131855
0.0172082
0.0207877
0.0239371
0.0266417
0.0289985
0.0311065
0.0330218
0.0347856
0.0364291
0.0379754
0.0394407
0.0408362
0.0421685
0.043441
0.0446544
0.0458074
0.0468969
0.0479186
0.0488676
0.049738
0.0505239
0.0512192
0.0518181
0.0523148
0.0527042
0.0529794
0.0531266
0.0531437
0.0530263
0.0527645
0.0523445
0.05175
0.0509627
0.0499674
0.048763
0.0473682
0.0457792
0.0436768
0.0406223
0.0373139
0.0330784
0.0263448
0.0178647
0.00492401
0.0111846
0.0165247
0.0213662
0.02574
0.0295893
0.0329123
0.0358451
0.0384753
0.0408672
0.04307
0.0451217
0.0470504
0.0488765
0.0506138
0.0522712
0.0538534
0.0553618
0.0567955
0.0581517
0.0594261
0.0606135
0.0617081
0.062704
0.0635955
0.0643774
0.0650455
0.0655966
0.0660277
0.0663353
0.0665174
0.0665728
0.0664974
0.0662821
0.065911
0.0653601
0.0645995
0.0636029
0.0623545
0.0608092
0.0586471
0.0555147
0.0512521
0.0455021
0.0362558
0.0225961
0.00550109
0.0129365
0.0188329
0.0241736
0.029001
0.0332421
0.0369727
0.0402903
0.0432758
0.0459951
0.0485006
0.0508332
0.0530238
0.0550952
0.0570633
0.0589384
0.0607265
0.0624301
0.064049
0.0655809
0.067022
0.0683676
0.0696125
0.0707515
0.0717799
0.0726938
0.0734909
0.0741704
0.0747332
0.0751821
0.0755199
0.0757502
0.075874
0.0758867
0.0757737
0.0755061
0.0750391
0.0743152
0.073268
0.0717951
0.0695931
0.0663744
0.0619199
0.056121
0.0461802
0.0269828
0.00585806
0.0143482
0.0206941
0.0263615
0.0314443
0.0359702
0.0399982
0.0436062
0.0468673
0.0498449
0.0525909
0.0551471
0.0575456
0.0598105
0.061959
0.0640028
0.0659491
0.0678014
0.0695604
0.0712247
0.0727914
0.0742564
0.0756156
0.0768648
0.0780004
0.0790204
0.0799243
0.0807141
0.0813941
0.0819715
0.0824536
0.0828485
0.0831616
0.0833913
0.0835233
0.083524
0.0833351
0.0828725
0.082027
0.0806488
0.0784591
0.0752411
0.0709855
0.0654818
0.0558247
0.0313543
0.00612342
0.0155945
0.0222902
0.0281499
0.0334171
0.0381494
0.0424015
0.0462386
0.0497249
0.0529184
0.0558682
0.058615
0.0611906
0.0636198
0.0659206
0.0681057
0.0701834
0.0721582
0.0740319
0.075804
0.0774726
0.0790349
0.0804875
0.0818278
0.0830535
0.0841643
0.085162
0.086051
0.0868387
0.0875358
0.0881532
0.088703
0.0891935
0.089625
0.0899821
0.0902265
0.0902889
0.0900649
0.0894149
0.0881601
0.0860537
0.0829461
0.0790418
0.073834
0.0642894
0.0359456
0.0065111
0.016697
0.0236831
0.0296857
0.0350786
0.0399577
0.0443799
0.0484008
0.0520754
0.0554542
0.0585819
0.0614964
0.0642287
0.066803
0.0692379
0.0715468
0.0737388
0.0758196
0.0777918
0.0796562
0.0814119
0.0830573
0.0845905
0.0860098
0.0873149
0.0885071
0.0895902
0.0905712
0.0914601
0.0922706
0.0930165
0.0937126
0.0943695
0.0949878
0.095551
0.0960159
0.0963048
0.0962995
0.0958417
0.09474
0.0927805
0.0898687
0.0862174
0.0814221
0.0720597
0.0401601
0.00695369
0.0177278
0.0249431
0.0310394
0.0365109
0.0414918
0.0460433
0.0502135
0.0540474
0.0575875
0.0608728
0.0639375
0.0668106
0.0695159
0.0720717
0.0744919
0.0767864
0.0789616
0.0810214
0.0829676
0.0848006
0.0865198
0.0881248
0.0896154
0.0909929
0.0922603
0.0934236
0.0944917
0.0954774
0.0963964
0.097265
0.0981001
0.0989134
0.0997054
0.100458
0.101124
0.101619
0.101817
0.101551
0.100628
0.0988643
0.096202
0.0927896
0.0882655
0.0788885
0.0439737
0.00740052
0.0187114
0.0260913
0.0322409
0.0377566
0.0428072
0.0474587
0.051752
0.0557226
0.0594043
0.0628301
0.0660303
0.0690314
0.071856
0.0745222
0.077044
0.0794318
0.081693
0.0838325
0.085853
0.0877561
0.0895428
0.0912138
0.0927706
0.0942158
0.0955545
0.0967942
0.0979463
0.0990253
0.100049
0.101036
0.102003
0.102964
0.103918
0.104846
0.105697
0.106383
0.106774
0.106702
0.105978
0.104442
0.102056
0.0988993
0.0944653
0.0848191
0.0473702
0.00782251
0.0196259
0.0271192
0.0332958
0.0388353
0.0439363
0.0486687
0.0530666
0.0571563
0.0609636
0.0645154
0.067838
0.0709556
0.0738894
0.0766569
0.0792722
0.0817461
0.0840865
0.0862993
0.0883885
0.0903567
0.0922062
0.0939392
0.0955585
0.0970685
0.0984757
0.0997896
0.101023
0.102193
0.103318
0.104419
0.105513
0.106614
0.107721
0.108812
0.109835
0.1107
0.111278
0.111401
0.11089
0.109603
0.107503
0.104597
0.100208
0.0901416
0.0502739
0.00819937
0.0204204
0.0280048
0.0341973
0.039754
0.0448982
0.049702
0.0541928
0.0583886
0.0623081
0.0659732
0.0694066
0.0726303
0.075664
0.0785247
0.0812262
0.0837796
0.0861936
0.0884747
0.090628
0.0926573
0.0945662
0.0963582
0.0980375
0.0996102
0.101084
0.102471
0.103784
0.105043
0.106267
0.107478
0.108694
0.109929
0.11118
0.112424
0.11361
0.114646
0.115406
0.115726
0.115438
0.114411
0.112595
0.109924
0.105562
0.0950468
0.0531333
0.00851978
0.021071
0.0287248
0.0349336
0.0405135
0.0457047
0.0505788
0.0551567
0.0594493
0.0634703
0.0672375
0.070771
0.074091
0.0772159
0.0801621
0.0829431
0.0855702
0.0880527
0.0903976
0.0926112
0.0946984
0.0966639
0.0985126
0.10025
0.101884
0.103424
0.104882
0.106274
0.10762
0.108941
0.110258
0.111592
0.112955
0.114343
0.115734
0.117075
0.118277
0.119215
0.119734
0.119676
0.118912
0.117374
0.114919
0.110568
0.0996354
0.0561642
0.00878078
0.0215556
0.0292585
0.0354937
0.0411135
0.046365
0.0513151
0.0559787
0.060362
0.0644754
0.0683347
0.0719585
0.0753655
0.0785734
0.0815977
0.0844519
0.0871473
0.0896934
0.0920982
0.0943686
0.0965109
0.0985308
0.100434
0.102229
0.103923
0.105528
0.107056
0.108526
0.109958
0.111374
0.112796
0.114244
0.11573
0.11725
0.118782
0.120272
0.121636
0.122751
0.123471
0.123644
0.123144
0.121875
0.119621
0.115283
0.104031
0.0592037
0.00898789
0.021853
0.0295879
0.0358694
0.0415563
0.0468886
0.0519251
0.0566761
0.0611456
0.0653438
0.0692861
0.0729909
0.0764762
0.0797591
0.0828545
0.0857757
0.088534
0.0911394
0.0936003
0.0959245
0.0981192
0.100191
0.102149
0.103999
0.105753
0.107421
0.10902
0.110567
0.112083
0.113592
0.115117
0.116676
0.118281
0.11993
0.121598
0.123235
0.124757
0.126049
0.126971
0.127377
0.127139
0.126132
0.124071
0.119771
0.108396
0.0625354
0.00914711
0.0219391
0.0296983
0.0360589
0.0418492
0.0472878
0.0524235
0.0572644
0.0618164
0.066092
0.0701089
0.0738859
0.0774412
0.0807914
0.0839511
0.0869334
0.0897496
0.0924099
0.0949232
0.0972982
0.099543
0.101666
0.103675
0.10558
0.107393
0.109125
0.110793
0.112417
0.114017
0.115618
0.117243
0.118911
0.120634
0.122408
0.12421
0.125991
0.12767
0.129139
0.130264
0.130904
0.130925
0.130175
0.128311
0.124108
0.112898
0.0665927
0.009224
0.0217855
0.0295799
0.03607
0.0420079
0.0475797
0.0528262
0.0577583
0.0623882
0.0667342
0.0708173
0.0746582
0.0782755
0.0816857
0.0849031
0.0879407
0.0908098
0.0935208
0.0960831
0.098506
0.100798
0.10297
0.10503
0.106989
0.108859
0.110655
0.112393
0.114092
0.115775
0.117467
0.119193
0.120969
0.122808
0.124705
0.126639
0.128563
0.130401
0.132047
0.133376
0.13425
0.13453
0.134038
0.132386
0.128366
0.117718
0.0734927
0.00899882
0.0318627
0.0428141
0.0428189
0.0424918
0.0429437
0.0424689
0.0430539
0.0430815
0.0465942
0.0500039
0.053251
0.0562601
0.058995
0.0614474
0.0636425
0.0656336
0.067489
0.0692753
0.0710426
0.0728157
0.0745891
0.0762511
0.0777136
0.0788747
0.0796278
0.0798712
0.0795176
0.0785034
0.076789
0.074353
0.0711495
0.0670355
0.0617576
0.0548632
0.0467027
0.0258712
0.0063448
0.0199354
0.0522518
0.0643467
0.0655583
0.0637172
0.0616634
0.0598503
0.0590016
0.06011
0.0621481
0.0642878
0.0666307
0.069302
0.0723597
0.0758211
0.0796591
0.0838258
0.0882789
0.0929942
0.0979551
0.103132
0.108374
0.11359
0.118624
0.123289
0.127385
0.130704
0.133051
0.134265
0.13423
0.132863
0.13005
0.125474
0.11831
0.106681
0.0868522
0.0538014
0.0112964
0.029966
0.0669992
0.0786614
0.0794494
0.0770575
0.0745367
0.0730161
0.0731512
0.0748208
0.077284
0.0800803
0.0831996
0.0867019
0.0906265
0.0949872
0.0997616
0.104909
0.110397
0.116213
0.122352
0.128796
0.135419
0.142102
0.148665
0.154883
0.160508
0.165273
0.168914
0.171204
0.171977
0.171113
0.168447
0.163551
0.155319
0.141312
0.116852
0.0766152
0.0182116
0.0377017
0.0788688
0.0898301
0.0905191
0.0884937
0.0867245
0.086316
0.0875721
0.0900202
0.0929323
0.0960471
0.0994311
0.103189
0.107411
0.112144
0.11738
0.123068
0.129154
0.135619
0.142469
0.149705
0.15722
0.164896
0.172543
0.17992
0.186743
0.192702
0.197475
0.200775
0.202387
0.202159
0.199884
0.195049
0.186379
0.171147
0.144326
0.0989231
0.0271913
0.0440708
0.0889253
0.0994331
0.100275
0.0989134
0.0981517
0.09887
0.101082
0.104202
0.107609
0.111131
0.114884
0.119016
0.12366
0.128885
0.134672
0.14093
0.147567
0.154547
0.161904
0.169688
0.177832
0.186241
0.194737
0.203068
0.210932
0.217981
0.223843
0.228172
0.23071
0.231277
0.229636
0.225198
0.216527
0.200582
0.171768
0.1218
0.0381322
0.0495187
0.0975657
0.107971
0.109099
0.108461
0.108725
0.110549
0.113744
0.117689
0.121852
0.126103
0.130568
0.135424
0.140832
0.146858
0.153437
0.160405
0.167604
0.174984
0.182628
0.19068
0.199144
0.207977
0.217029
0.226054
0.23474
0.242713
0.249553
0.254859
0.258334
0.259784
0.258951
0.255183
0.246875
0.230617
0.200117
0.145811
0.0510025
0.0542836
0.104942
0.11552
0.117024
0.117152
0.118484
0.121502
0.125883
0.130989
0.13633
0.141774
0.147437
0.153511
0.160161
0.167421
0.175135
0.183015
0.190802
0.198427
0.206058
0.213985
0.222338
0.231156
0.24034
0.249666
0.258825
0.267431
0.275025
0.281148
0.285472
0.287803
0.287886
0.285013
0.277397
0.261182
0.229237
0.170742
0.0654951
0.058506
0.111146
0.122047
0.124013
0.125011
0.127559
0.131999
0.137913
0.144645
0.151704
0.158925
0.166393
0.174295
0.182784
0.191824
0.201111
0.210168
0.218583
0.22626
0.233485
0.240762
0.248426
0.256631
0.265356
0.274419
0.283535
0.292325
0.300299
0.306938
0.311883
0.314968
0.31596
0.314107
0.307421
0.29152
0.25832
0.195824
0.0810337
0.0622794
0.116256
0.127519
0.130042
0.132096
0.136134
0.142358
0.150272
0.159203
0.168627
0.178311
0.188283
0.198709
0.209714
0.22116
0.232541
0.243115
0.252247
0.259785
0.266163
0.272166
0.278437
0.285285
0.292795
0.300851
0.309219
0.317556
0.32536
0.332044
0.33721
0.340743
0.342466
0.341597
0.335935
0.320515
0.286202
0.21999
0.096886
0.0656744
0.120348
0.131926
0.135131
0.138514
0.144426
0.152912
0.163398
0.17519
0.187703
0.200599
0.213812
0.227466
0.241656
0.256139
0.270171
0.282675
0.292714
0.300019
0.305172
0.309283
0.313423
0.318095
0.323514
0.329658
0.336382
0.343432
0.350326
0.356396
0.361176
0.364624
0.366673
0.366533
0.361801
0.346904
0.311605
0.242091
0.112294
0.0687548
0.123499
0.135297
0.139357
0.144426
0.152695
0.164007
0.1777
0.193051
0.209393
0.226233
0.243358
0.26083
0.278733
0.296757
0.313938
0.328833
0.340114
0.347305
0.351081
0.352874
0.35428
0.356027
0.358476
0.361721
0.365753
0.370489
0.375544
0.380156
0.383729
0.386299
0.387988
0.388051
0.38392
0.369446
0.333276
0.261023
0.126572
0.0715903
0.125806
0.137715
0.142865
0.150058
0.16124
0.175979
0.193502
0.213054
0.23387
0.255252
0.276769
0.298389
0.320229
0.34201
0.36265
0.380366
0.393372
0.400863
0.403501
0.402969
0.401389
0.399756
0.398551
0.397985
0.398228
0.399481
0.401608
0.403775
0.405133
0.405772
0.406108
0.405535
0.401397
0.387059
0.350086
0.275774
0.13916
0.0742717
0.127412
0.139341
0.145897
0.155721
0.170396
0.189119
0.210963
0.235158
0.260853
0.287103
0.313179
0.338899
0.364465
0.389789
0.413867
0.434697
0.449992
0.458484
0.460679
0.458423
0.45413
0.449198
0.444117
0.439156
0.434658
0.431236
0.429261
0.427938
0.425992
0.42344
0.421149
0.418784
0.413717
0.398977
0.361141
0.285474
0.149676
0.076923
0.128549
0.140471
0.148834
0.161829
0.180525
0.203616
0.229981
0.258884
0.289458
0.320512
0.350919
0.380259
0.408849
0.436986
0.464046
0.488023
0.506129
0.516491
0.519306
0.516483
0.510396
0.502942
0.49446
0.485154
0.475419
0.466335
0.45914
0.45338
0.447142
0.440081
0.433702
0.428151
0.420931
0.404947
0.365951
0.289533
0.157945
0.0797478
0.129574
0.141609
0.152243
0.168914
0.191979
0.219481
0.250087
0.283208
0.318114
0.353422
0.387507
0.419578
0.450039
0.479739
0.508827
0.535628
0.556886
0.569967
0.574596
0.572584
0.566266
0.557708
0.547061
0.534321
0.519673
0.504493
0.491275
0.480465
0.469342
0.456659
0.444752
0.434566
0.423786
0.405405
0.364616
0.287837
0.164029
0.0831957
0.131102
0.143587
0.156932
0.177596
0.204992
0.236414
0.270347
0.306513
0.344552
0.383017
0.4197
0.453283
0.484129
0.513688
0.543321
0.572193
0.596639
0.613071
0.620569
0.620732
0.615911
0.607998
0.596936
0.582496
0.564323
0.543572
0.524197
0.508415
0.492629
0.473815
0.455285
0.439304
0.42365
0.40155
0.358009
0.280917
0.168235
0.00918891
0.0212263
0.0291117
0.0358679
0.0420786
0.047876
0.0532966
0.0583634
0.0631033
0.0675461
0.0717197
0.0756482
0.079351
0.0828447
0.0861434
0.0892599
0.0922056
0.0949909
0.097626
0.100121
0.102486
0.104733
0.106872
0.108916
0.110879
0.112776
0.114626
0.116448
0.118267
0.120105
0.121987
0.123932
0.12595
0.12804
0.130181
0.132329
0.134416
0.136343
0.137993
0.139236
0.139924
0.13985
0.13858
0.134974
0.125669
0.0975679
0.00882705
0.0195194
0.0278209
0.0352193
0.041934
0.0480711
0.0537103
0.0589214
0.0637674
0.0683001
0.0725581
0.0765696
0.0803552
0.0839319
0.087314
0.0905139
0.0935432
0.0964125
0.0991321
0.101713
0.104166
0.106506
0.108745
0.110898
0.112981
0.115012
0.11701
0.118996
0.120993
0.123024
0.125109
0.127269
0.129516
0.13185
0.134251
0.136681
0.139078
0.141352
0.143395
0.145082
0.146265
0.14673
0.14606
0.14332
0.136342
0.1209
0.00839793
0.017344
0.0265693
0.0347458
0.0419219
0.0483181
0.0540875
0.0593615
0.0642461
0.0688141
0.0731096
0.0771606
0.0809882
0.0846102
0.0880416
0.0912955
0.0943836
0.0973172
0.100108
0.102764
0.105297
0.107721
0.110052
0.112308
0.114506
0.116665
0.118806
0.120952
0.123126
0.125349
0.12764
0.13002
0.132501
0.135084
0.137753
0.140477
0.143198
0.145834
0.148286
0.150441
0.152165
0.153269
0.153423
0.151981
0.147761
0.139582
0.00917175
0.0174163
0.0266315
0.0348003
0.0420927
0.0487319
0.0545441
0.0598035
0.0646741
0.0692392
0.0735402
0.0776002
0.0814388
0.0850751
0.0885255
0.0918036
0.0949211
0.0978898
0.100724
0.103433
0.106019
0.108502
0.1109
0.113233
0.115523
0.11779
0.120059
0.12236
0.124711
0.127131
0.129636
0.132242
0.134967
0.137808
0.140759
0.143792
0.14685
0.149859
0.152732
0.155373
0.15767
0.159474
0.160549
0.160501
0.158732
0.15496
0.0173814
0.0249278
0.034633
0.0423849
0.0481001
0.0521977
0.0562812
0.0607582
0.0652688
0.069643
0.073829
0.0778142
0.0816018
0.0852019
0.0886254
0.0918824
0.0949822
0.0979352
0.100849
0.103748
0.106381
0.108916
0.111385
0.113806
0.116201
0.118586
0.120971
0.123396
0.125876
0.128447
0.131137
0.133983
0.136973
0.140074
0.143326
0.146696
0.150096
0.153479
0.156778
0.159912
0.16279
0.165301
0.167288
0.168521
0.168706
0.167769
0.0248871
0.0409475
0.0509911
0.0581347
0.0636479
0.0684179
0.0727845
0.0769225
0.0808935
0.084715
0.0883841
0.0918878
0.0952093
0.0983267
0.101206
0.103786
0.105939
0.107382
0.107477
0.106024
0.107328
0.109446
0.11172
0.114029
0.116352
0.118685
0.121093
0.12379
0.126546
0.12942
0.132482
0.135596
0.138656
0.141901
0.14549
0.149254
0.152971
0.156714
0.160439
0.164062
0.167514
0.170705
0.173533
0.175871
0.177564
0.178561
0.0257794
0.0461533
0.0580614
0.0664115
0.0729571
0.0785195
0.0834147
0.0878345
0.091913
0.0957386
0.0993596
0.102795
0.106048
0.109109
0.11196
0.114572
0.116898
0.11888
0.120513
0.122173
0.124372
0.126804
0.129247
0.131573
0.133626
0.135031
0.134624
0.12841
0.127505
0.129754
0.13278
0.136261
0.139674
0.1436
0.14781
0.151654
0.155447
0.159508
0.163667
0.167772
0.171791
0.175616
0.179192
0.18245
0.185288
0.187625
0.0249844
0.0481028
0.0615928
0.0712595
0.0789488
0.0854209
0.0910255
0.0959843
0.100463
0.104583
0.108428
0.112048
0.115475
0.118726
0.121811
0.124737
0.127513
0.130155
0.132714
0.135314
0.138041
0.140835
0.143607
0.146261
0.148659
0.150537
0.151416
0.150912
0.151304
0.152014
0.150773
0.141515
0.140567
0.144028
0.14925
0.153604
0.157794
0.162037
0.166412
0.170916
0.175487
0.179872
0.184103
0.188119
0.191808
0.195067
0.0242891
0.0492082
0.0635716
0.0741484
0.0827417
0.0900153
0.0963186
0.101881
0.106876
0.111436
0.115659
0.119618
0.123363
0.126934
0.130361
0.133671
0.13689
0.140047
0.143175
0.146317
0.149503
0.152724
0.155943
0.159101
0.162104
0.164803
0.167015
0.168751
0.170522
0.17207
0.172406
0.170672
0.169725
0.168001
0.15893
0.154353
0.158709
0.163705
0.168852
0.173932
0.178612
0.183242
0.188004
0.19263
0.196925
0.200827
0.023876
0.0499232
0.0646781
0.0758833
0.085138
0.0930502
0.0999559
0.10608
0.11159
0.116618
0.121268
0.125619
0.129737
0.133671
0.137465
0.141156
0.144777
0.14836
0.151934
0.15553
0.15917
0.162863
0.166598
0.170341
0.174033
0.177589
0.180922
0.184033
0.187019
0.189747
0.191802
0.192997
0.193834
0.193581
0.190528
0.1858
0.174812
0.165811
0.169719
0.175701
0.180896
0.186081
0.191143
0.195896
0.200413
0.204696
0.0237951
0.0501914
0.0652763
0.0769077
0.0866229
0.0950077
0.102388
0.10898
0.114944
0.120406
0.125467
0.13021
0.134703
0.139004
0.143161
0.147218
0.151215
0.155188
0.159169
0.163191
0.167281
0.171457
0.17572
0.180055
0.184428
0.188783
0.193066
0.197248
0.201316
0.205187
0.208673
0.211669
0.214216
0.215964
0.216267
0.214984
0.211458
0.206949
0.201966
0.183051
0.181694
0.187174
0.193143
0.198196
0.202874
0.207077
0.0238334
0.0502609
0.0655808
0.077492
0.0875074
0.0962144
0.103937
0.110886
0.117216
0.123045
0.128469
0.13357
0.138415
0.143063
0.147568
0.151976
0.156331
0.160674
0.165043
0.169474
0.173998
0.17864
0.183411
0.188307
0.193309
0.198381
0.203481
0.208569
0.213605
0.218502
0.223175
0.227532
0.231521
0.234953
0.237512
0.238984
0.239224
0.238394
0.236084
0.230084
0.225333
0.21748
0.196403
0.198898
0.204035
0.208288
0.0239706
0.0502676
0.0657353
0.0778102
0.0879963
0.0968958
0.104839
0.112036
0.118636
0.124752
0.130476
0.135884
0.141042
0.146008
0.150835
0.155574
0.160268
0.164963
0.1697
0.174517
0.179452
0.184531
0.189772
0.195182
0.200749
0.206452
0.212255
0.218119
0.223996
0.229807
0.235483
0.240955
0.246148
0.250937
0.255137
0.258589
0.261205
0.262952
0.263596
0.262667
0.260952
0.257173
0.248894
0.241135
0.218433
0.210552
0.024219
0.0502941
0.0658296
0.0779675
0.0882163
0.0971995
0.105257
0.112603
0.119383
0.125708
0.131663
0.137321
0.142744
0.147989
0.153108
0.158149
0.163159
0.168183
0.173265
0.178444
0.183759
0.189241
0.194911
0.200781
0.20685
0.213101
0.219509
0.226038
0.232639
0.239248
0.24578
0.252186
0.258391
0.264295
0.269766
0.274685
0.278967
0.28256
0.285353
0.287183
0.288146
0.287847
0.285457
0.281668
0.274879
0.269492
0.0245616
0.050369
0.0659015
0.0780142
0.0882354
0.0972127
0.105298
0.112708
0.11959
0.126049
0.13217
0.13802
0.143659
0.14914
0.154513
0.159825
0.165122
0.170449
0.175848
0.181361
0.187025
0.192874
0.198931
0.205212
0.211722
0.21845
0.225377
0.232471
0.23969
0.246975
0.254253
0.261447
0.268504
0.275335
0.281836
0.287902
0.293451
0.298422
0.302747
0.306351
0.309228
0.311241
0.312033
0.311667
0.310147
0.308302
0.0249601
0.050482
0.0659488
0.0779616
0.088082
0.0969823
0.105025
0.112431
0.119347
0.125878
0.132105
0.138092
0.143897
0.149569
0.155156
0.160704
0.166255
0.171853
0.17754
0.183355
0.189337
0.195518
0.201923
0.208571
0.215467
0.22261
0.229982
0.237559
0.2453
0.253155
0.261059
0.268937
0.276713
0.284322
0.291672
0.298669
0.305229
0.311285
0.316775
0.321646
0.325869
0.329381
0.332026
0.33377
0.334649
0.334827
0.0253702
0.0506012
0.0659472
0.0777997
0.0877628
0.0965317
0.104478
0.111825
0.118721
0.12527
0.13155
0.137625
0.143547
0.149367
0.155127
0.160871
0.16664
0.172475
0.178417
0.184503
0.190769
0.197247
0.203962
0.210934
0.218171
0.225673
0.233429
0.241416
0.249601
0.257935
0.266363
0.274815
0.283215
0.291479
0.299538
0.307303
0.314691
0.321628
0.32805
0.333903
0.339145
0.343731
0.347584
0.350666
0.352994
0.354627
0.0257536
0.050689
0.0658661
0.0775125
0.087277
0.0958746
0.103684
0.110931
0.117763
0.124285
0.130573
0.136689
0.142686
0.148608
0.1545
0.1604
0.166349
0.172385
0.178546
0.184866
0.191381
0.19812
0.205108
0.212363
0.219898
0.227712
0.235797
0.244134
0.252692
0.261431
0.270296
0.279225
0.288147
0.296979
0.305636
0.314042
0.322117
0.329784
0.336972
0.343622
0.349683
0.355113
0.359859
0.363894
0.36722
0.369868
0.0260827
0.0507132
0.0656806
0.0770874
0.086625
0.0950233
0.102666
0.10978
0.116515
0.122972
0.12923
0.135348
0.141377
0.147362
0.153344
0.15936
0.165449
0.171645
0.177985
0.184502
0.191227
0.198189
0.20541
0.21291
0.220699
0.228778
0.237143
0.245775
0.254649
0.263724
0.272954
0.282279
0.291632
0.300935
0.310106
0.319059
0.32771
0.335988
0.343816
0.351129
0.357871
0.363995
0.369456
0.374228
0.378304
0.381696
0.0263412
0.0506513
0.0653753
0.0765201
0.0858125
0.093993
0.101448
0.108407
0.115016
0.121379
0.127573
0.133658
0.139682
0.145691
0.151722
0.157814
0.164001
0.170318
0.176796
0.183468
0.190362
0.197505
0.204919
0.21262
0.220619
0.22892
0.237516
0.246392
0.255525
0.264878
0.274408
0.284057
0.293763
0.303453
0.313046
0.322459
0.331606
0.3404
0.348768
0.356642
0.363959
0.370667
0.376722
0.382093
0.386765
0.390735
0.0265222
0.0504915
0.0649456
0.0758144
0.0848512
0.0928028
0.100057
0.106842
0.113305
0.11955
0.125652
0.131672
0.137658
0.143654
0.149698
0.155825
0.16207
0.168464
0.175039
0.181822
0.188843
0.196123
0.203685
0.211543
0.219707
0.228181
0.23696
0.24603
0.255368
0.264942
0.274711
0.28462
0.294611
0.304611
0.314546
0.324332
0.333884
0.343117
0.351948
0.360299
0.368105
0.37531
0.381867
0.387739
0.392902
0.397342
0.0266254
0.0502307
0.0643955
0.0749811
0.0837579
0.0914749
0.098519
0.105118
0.11142
0.117527
0.123514
0.129443
0.135361
0.141312
0.147332
0.153457
0.15972
0.16615
0.172777
0.179629
0.18673
0.194103
0.201766
0.209734
0.218016
0.226615
0.235526
0.244738
0.254228
0.263968
0.273916
0.284024
0.294233
0.304476
0.314678
0.32476
0.334636
0.344221
0.353431
0.362185
0.37041
0.378041
0.385025
0.39132
0.396896
0.401728
0.026655
0.0498724
0.0637346
0.0740354
0.0825523
0.0900332
0.0968632
0.103269
0.109398
0.115351
0.121205
0.12702
0.132844
0.13872
0.144685
0.150772
0.157015
0.163442
0.17008
0.176956
0.184093
0.191512
0.19923
0.20726
0.21561
0.224284
0.233277
0.242578
0.252167
0.262015
0.272085
0.28233
0.292695
0.303114
0.313515
0.32382
0.333946
0.343806
0.353314
0.362389
0.370954
0.378939
0.386284
0.392941
0.398866
0.404031
0.0266175
0.0494242
0.0629765
0.0729948
0.0812555
0.0885022
0.0951173
0.101326
0.107274
0.113062
0.118768
0.124451
0.130158
0.135934
0.141815
0.147833
0.154021
0.160407
0.167018
0.173876
0.181006
0.188426
0.196152
0.204196
0.212566
0.221265
0.230289
0.239626
0.249259
0.25916
0.269295
0.279618
0.290076
0.300607
0.31114
0.3216
0.331903
0.341964
0.351698
0.361019
0.369847
0.378111
0.385745
0.392694
0.398911
0.404358
0.0265208
0.0488963
0.062136
0.0718776
0.0798884
0.0869057
0.093308
0.0993182
0.105081
0.110698
0.116244
0.121779
0.127353
0.133007
0.138779
0.1447
0.150803
0.157115
0.16366
0.170464
0.177545
0.184924
0.192614
0.200627
0.20897
0.217646
0.22665
0.235974
0.245598
0.255498
0.265641
0.275984
0.286476
0.297056
0.307658
0.318205
0.328618
0.338811
0.348698
0.358193
0.367214
0.375686
0.38354
0.390716
0.397162
0.402835
0.0263733
0.0483001
0.0612288
0.0707019
0.0784713
0.085266
0.0914599
0.0972734
0.10285
0.10829
0.113669
0.119047
0.124473
0.129988
0.13563
0.141431
0.147422
0.15363
0.160079
0.166792
0.17379
0.181088
0.188702
0.196642
0.204915
0.213523
0.222462
0.231723
0.24129
0.251139
0.261237
0.271545
0.282014
0.292586
0.303195
0.313768
0.324226
0.334484
0.344457
0.354058
0.363204
0.371817
0.379826
0.387166
0.393783
0.39963
0.0261832
0.0476474
0.0602698
0.0694846
0.0770226
0.0836032
0.0895951
0.0952161
0.100608
0.10587
0.111078
0.116291
0.121558
0.126922
0.132418
0.13808
0.143937
0.150017
0.156343
0.162937
0.169818
0.177003
0.184506
0.192336
0.2005
0.209
0.217833
0.226989
0.236454
0.246205
0.256212
0.266436
0.276831
0.287341
0.297902
0.308444
0.318887
0.32915
0.339147
0.348791
0.357998
0.36669
0.374792
0.382238
0.388971
0.394941
0.0259587
0.04695
0.0592734
0.0682413
0.0755592
0.0819354
0.0877335
0.0931678
0.0983784
0.103464
0.1085
0.113544
0.118646
0.123849
0.129187
0.134695
0.140402
0.146334
0.152515
0.158965
0.165705
0.172749
0.180111
0.1878
0.195823
0.204182
0.212873
0.221888
0.231214
0.240829
0.250704
0.260802
0.27108
0.281482
0.291948
0.302408
0.312786
0.323
0.332965
0.342596
0.351809
0.360522
0.368661
0.37616
0.382957
0.389004
0.0257073
0.0462192
0.0582529
0.0669862
0.0740959
0.0802786
0.0858919
0.0911471
0.0961821
0.101095
0.105959
0.110834
0.115768
0.120804
0.125978
0.131322
0.136866
0.142635
0.148655
0.154944
0.161521
0.168403
0.175601
0.183125
0.190981
0.199171
0.207694
0.21654
0.225697
0.235145
0.244856
0.254796
0.264921
0.27518
0.285512
0.295851
0.306121
0.316242
0.326131
0.335703
0.344872
0.353559
0.361689
0.369193
0.376011
0.382092
0.0254363
0.0454662
0.0572207
0.0657323
0.072646
0.0786465
0.0840853
0.0891699
0.0940364
0.0987815
0.103478
0.108185
0.112952
0.117819
0.122823
0.127997
0.133371
0.138969
0.144815
0.15093
0.157332
0.164035
0.171053
0.178394
0.186065
0.194068
0.202402
0.211058
0.220026
0.229285
0.23881
0.248568
0.258517
0.268607
0.278779
0.288968
0.2991
0.309097
0.318876
0.328353
0.337444
0.346068
0.354151
0.361625
0.368429
0.374512
0.0251522
0.0447011
0.0561883
0.0644912
0.0712215
0.0770514
0.082326
0.0872495
0.0919557
0.09654
0.101075
0.105618
0.110219
0.114918
0.119753
0.124755
0.129954
0.135376
0.141043
0.146976
0.153193
0.159709
0.166535
0.173683
0.181158
0.188963
0.197096
0.205551
0.214317
0.223375
0.232703
0.242266
0.252025
0.261932
0.271929
0.281953
0.291931
0.301785
0.311435
0.320796
0.329786
0.338325
0.346339
0.353761
0.360529
0.366595
0.0248611
0.043934
0.0551663
0.0632734
0.0698327
0.0755036
0.080625
0.0853973
0.0899522
0.0943836
0.0987632
0.103148
0.107588
0.112123
0.11679
0.121621
0.126646
0.13189
0.137376
0.143125
0.149154
0.155478
0.16211
0.16906
0.176334
0.183935
0.191864
0.200114
0.208675
0.21753
0.226657
0.236023
0.245591
0.255314
0.265134
0.27499
0.28481
0.294518
0.304034
0.313274
0.322157
0.330605
0.338545
0.345908
0.352636
0.358682
0.0245688
0.043174
0.0541646
0.0620887
0.068489
0.0740123
0.0789913
0.0836226
0.0880356
0.0923228
0.096555
0.100789
0.105074
0.10945
0.113954
0.118618
0.123472
0.12854
0.133847
0.139413
0.145255
0.151388
0.157826
0.164579
0.171654
0.179055
0.186782
0.194831
0.203192
0.21185
0.220783
0.229961
0.239346
0.248893
0.258548
0.268246
0.27792
0.287492
0.296884
0.306015
0.314803
0.323171
0.331046
0.338365
0.345068
0.351109
0.0242803
0.0424298
0.0531923
0.0609459
0.0671988
0.0725856
0.0774327
0.0819331
0.0862137
0.0903658
0.0944593
0.0985506
0.102688
0.106911
0.111259
0.115762
0.12045
0.125348
0.130481
0.135868
0.141528
0.147476
0.153726
0.160288
0.167171
0.174379
0.181914
0.189771
0.197944
0.206418
0.215172
0.224179
0.2334
0.242793
0.252302
0.261866
0.271417
0.280879
0.290173
0.29922
0.30794
0.316256
0.324099
0.331405
0.338117
0.344192
0.0240003
0.0417095
0.0522578
0.059853
0.0659696
0.0712306
0.0759559
0.0803351
0.0844929
0.0885191
0.0924825
0.0964393
0.100437
0.104517
0.108715
0.113064
0.117593
0.122329
0.127295
0.132511
0.137997
0.143768
0.149839
0.156221
0.162923
0.169951
0.177307
0.184989
0.192992
0.201301
0.209899
0.218758
0.227842
0.237108
0.246504
0.255967
0.26543
0.274818
0.284053
0.293057
0.301751
0.310061
0.317919
0.325262
0.332039
0.338206
0.0237332
0.0410206
0.051369
0.0588175
0.0648085
0.0699535
0.0745666
0.078834
0.0828781
0.0867872
0.0906295
0.0944605
0.0983274
0.102271
0.106329
0.110533
0.114912
0.119494
0.124302
0.129357
0.134679
0.140285
0.146188
0.152403
0.158938
0.165802
0.172997
0.180524
0.188378
0.196548
0.205016
0.213757
0.222736
0.231912
0.241232
0.250635
0.260053
0.269414
0.27864
0.287652
0.296375
0.304736
0.31267
0.320119
0.327031
0.333368
0.0234826
0.04037
0.0505331
0.0578462
0.0637215
0.0687598
0.0732697
0.077434
0.081373
0.0851737
0.0889033
0.092617
0.0963617
0.100179
0.104104
0.108172
0.112411
0.116849
0.121509
0.126414
0.131584
0.137036
0.142786
0.148848
0.155234
0.161951
0.169006
0.1764
0.184131
0.192189
0.200558
0.209214
0.218126
0.22725
0.236537
0.245926
0.25535
0.264735
0.274006
0.283086
0.291901
0.300381
0.308463
0.316094
0.323228
0.329826
0.0232519
0.039764
0.0497566
0.0569453
0.0627143
0.0676545
0.0720694
0.0761385
0.0799804
0.0836805
0.0873056
0.0909102
0.0945411
0.0982396
0.102042
0.105983
0.110091
0.114395
0.118918
0.123685
0.128714
0.134027
0.139638
0.145564
0.151817
0.158408
0.165345
0.17263
0.180264
0.188238
0.19654
0.205147
0.214029
0.223144
0.232443
0.241866
0.251346
0.260812
0.270187
0.279396
0.288369
0.297038
0.305346
0.313244
0.320689
0.327649
0.0230443
0.0392083
0.0490456
0.0561204
0.0617918
0.0666419
0.0709692
0.0749505
0.0787023
0.0823092
0.085837
0.08934
0.092865
0.0964531
0.100142
0.103964
0.107951
0.11213
0.116528
0.121167
0.12607
0.131256
0.136744
0.14255
0.148689
0.155173
0.162013
0.169213
0.176776
0.184697
0.192964
0.201556
0.210446
0.219593
0.228948
0.238452
0.24804
0.25764
0.267176
0.276577
0.285772
0.294702
0.303311
0.311557
0.319405
0.326828
0.0228622
0.0387082
0.0484054
0.0553765
0.0609586
0.0657257
0.0699721
0.0738719
0.07754
0.08106
0.0844972
0.0879055
0.0913315
0.0948168
0.0983987
0.102111
0.105986
0.110051
0.114333
0.118856
0.123644
0.128718
0.134096
0.139799
0.145841
0.152238
0.159002
0.166141
0.173658
0.181553
0.189815
0.198426
0.207359
0.216577
0.22603
0.23566
0.245403