/*--------------------------------*- C++ -*----------------------------------*\
  =========                 |
  \\      /  F ield         | OpenFOAM: The Open Source CFD Toolbox
   \\    /   O peration     | Website:  https://openfoam.org
    \\  /    A nd           | Version:  7
     \\/     M anipulation  |
\*---------------------------------------------------------------------------*/
FoamFile
{
    version     2.0;
    format      ascii;
    class       volScalarField;
    location    "0.5";
    object      nut;
}
// * * * * * * * * * * * * * * * * * * * * * * * * * * * * * * * * * * * * * //

dimensions      [0 2 -1 0 0 0 0];

internalField   nonuniform List<scalar> 
9072
(
2.23872e-05
2.19295e-05
2.6767e-05
3.07472e-05
3.37488e-05
3.60882e-05
3.80025e-05
3.97566e-05
4.12701e-05
4.26064e-05
4.38052e-05
4.48956e-05
4.58988e-05
4.68298e-05
4.76992e-05
4.85142e-05
4.92793e-05
4.99972e-05
5.06689e-05
5.12943e-05
5.18724e-05
5.24013e-05
5.28786e-05
5.33012e-05
5.36655e-05
5.39675e-05
5.42023e-05
5.43641e-05
5.44432e-05
5.44347e-05
5.43772e-05
5.42293e-05
5.3969e-05
5.35756e-05
5.30246e-05
5.22867e-05
5.13299e-05
5.01279e-05
4.86755e-05
4.69911e-05
4.51594e-05
4.3579e-05
4.21186e-05
4.0151e-05
3.80613e-05
3.34698e-05
4.5056e-05
0.000139144
0.000214248
0.00026635
0.000307601
0.0003411
0.000367455
0.000388129
0.000405349
0.000419935
0.000432476
0.000443401
0.000453024
0.000461579
0.000469235
0.000476118
0.000482318
0.000487898
0.000492902
0.000497357
0.000501278
0.000504671
0.000507534
0.00050986
0.000511641
0.000512865
0.00051352
0.000513587
0.000513002
0.000511154
0.000507044
0.000501227
0.00049372
0.000484301
0.000472655
0.000458474
0.000441613
0.000422321
0.000401366
0.000379734
0.000355105
0.000328429
0.000318475
0.000306513
0.000221951
9.45549e-05
4.99689e-05
0.000247809
0.000391437
0.000499724
0.000589252
0.000663792
0.000725639
0.000777725
0.000822277
0.00086073
0.000894177
0.000923464
0.000949251
0.000972054
0.000992277
0.00101024
0.00102618
0.00104029
0.00105272
0.00106357
0.00107292
0.00108081
0.00108727
0.00109231
0.00109592
0.00109809
0.00109879
0.00109796
0.00109541
0.0010904
0.00108147
0.00106872
0.00105186
0.00103016
0.00100261
0.000968038
0.000925448
0.000874614
0.000816706
0.000754521
0.000690444
0.000633692
0.000598593
0.000545949
0.000363363
0.000106303
5.28369e-05
0.000326321
0.000526502
0.000683813
0.000817128
0.000930858
0.00102901
0.00111426
0.00118879
0.00125425
0.00131198
0.00136305
0.00140836
0.00144861
0.0014844
0.0015162
0.00154442
0.00156937
0.00159129
0.0016104
0.00162682
0.00164068
0.00165204
0.00166095
0.00166742
0.00167143
0.00167294
0.00167184
0.00166783
0.00166015
0.00164724
0.00162863
0.00160352
0.00157062
0.00152814
0.00147407
0.00140655
0.00132475
0.00122999
0.00112668
0.001022
0.00093059
0.000859109
0.000764592
0.000506716
0.00011614
5.45386e-05
0.000380909
0.000627403
0.000826273
0.000997503
0.00114768
0.00128028
0.00139777
0.00150216
0.00159511
0.00167802
0.00175207
0.00181825
0.00187741
0.00193027
0.00197744
0.00201944
0.00205668
0.00208952
0.00211824
0.00214306
0.00216417
0.00218167
0.00219566
0.00220616
0.00221317
0.00221664
0.00221641
0.00221209
0.00220287
0.00218713
0.00216395
0.00213202
0.00208945
0.0020338
0.00196231
0.0018725
0.00176313
0.00163566
0.00149572
0.00135363
0.00122586
0.0011159
0.000970066
0.000652054
0.000125165
5.57435e-05
0.000418297
0.000701462
0.000934887
0.00114004
0.00132339
0.001488
0.001636
0.00176916
0.001889
0.00199686
0.00209393
0.00218126
0.00225978
0.00233031
0.00239353
0.00245007
0.00250043
0.00254506
0.00258432
0.0026185
0.00264783
0.0026725
0.00269261
0.00270823
0.00271938
0.00272597
0.0027278
0.00272442
0.00271492
0.00269762
0.00267124
0.00263397
0.00258341
0.00251653
0.00243003
0.00232096
0.00218789
0.00203244
0.00186092
0.00168504
0.00152038
0.00136904
0.00116077
0.000765807
0.000134019
5.74408e-05
0.000440267
0.000754105
0.0010175
0.0012526
0.00146589
0.00166
0.00183657
0.00199701
0.0021426
0.00227458
0.0023941
0.00250222
0.00259993
0.00268809
0.00276749
0.0028388
0.00290264
0.0029595
0.00300982
0.00305396
0.00309221
0.00312479
0.00315186
0.00317352
0.00318976
0.00320052
0.00320553
0.00320426
0.00319571
0.00317812
0.00314987
0.00310876
0.00305189
0.00297579
0.00287671
0.00275142
0.00259837
0.00241926
0.00222056
0.00201382
0.00181167
0.00160996
0.0013378
0.000863156
0.000141647
5.93382e-05
0.000454229
0.000791721
0.00108018
0.0013414
0.00158161
0.00180277
0.00200592
0.00219198
0.00236196
0.00251692
0.00265795
0.00278612
0.00290242
0.0030078
0.00310309
0.00318905
0.00326633
0.00333553
0.00339712
0.00345155
0.00349913
0.00354015
0.00357479
0.00360318
0.00362532
0.00364113
0.00365028
0.00365218
0.00364571
0.003629
0.00360016
0.00355663
0.00349512
0.00341174
0.00330245
0.00316379
0.00299413
0.00279505
0.00257266
0.00233709
0.00209683
0.00184003
0.00149938
0.00094677
0.000148208
6.11986e-05
0.000464297
0.000818711
0.00112752
0.00141134
0.00167567
0.0019216
0.00214938
0.00235937
0.00255224
0.00272886
0.00289025
0.00303747
0.00317154
0.00329345
0.00340409
0.00350428
0.00359474
0.00367611
0.00374895
0.00381374
0.00387086
0.00392062
0.00396325
0.00399888
0.00402754
0.0040491
0.00406322
0.00406919
0.00406578
0.00405104
0.00402281
0.00397821
0.00391362
0.00382483
0.00370754
0.00355813
0.00337479
0.00315881
0.00291537
0.00265236
0.00237355
0.00206069
0.00164751
0.00101836
0.000153833
6.29062e-05
0.000471764
0.000837732
0.00116284
0.0014662
0.00175219
0.00202078
0.00227132
0.00250354
0.00271773
0.0029146
0.00309508
0.00326022
0.00341106
0.00354864
0.00367391
0.00378774
0.00389091
0.00398413
0.004068
0.00414305
0.00420972
0.00426835
0.00431921
0.00436244
0.00439808
0.00442596
0.00444569
0.0044565
0.00445703
0.00444522
0.00441869
0.00437428
0.00430808
0.00421562
0.00409238
0.00393455
0.00374008
0.0035097
0.00324727
0.00295784
0.00264042
0.00227184
0.00178741
0.00108301
0.000158484
6.43901e-05
0.000476495
0.000850144
0.00118839
0.00150884
0.00181442
0.0021038
0.00237531
0.00262808
0.00286202
0.00307767
0.00327588
0.00345771
0.00362424
0.00377653
0.00391559
0.00404234
0.00415764
0.00426223
0.00435678
0.00444187
0.00451797
0.00458547
0.00464466
0.00469571
0.00473863
0.00477325
0.00479913
0.0048154
0.00482061
0.00481259
0.00478874
0.00474567
0.00467923
0.00458471
0.00445738
0.00429323
0.00408983
0.00384714
0.00356735
0.00325244
0.00289687
0.00247373
0.00192048
0.00114254
0.000162969
6.56187e-05
0.000478036
0.000856516
0.0012057
0.00154145
0.00186497
0.00217347
0.0024643
0.00273595
0.00298804
0.00322096
0.00343553
0.00363279
0.00381384
0.00397981
0.00413175
0.00427065
0.0043974
0.00451281
0.0046176
0.00471238
0.00479769
0.00487394
0.00494146
0.00500041
0.00505083
0.0050925
0.00512493
0.00514717
0.0051577
0.00515421
0.00513393
0.00509327
0.00502783
0.00493272
0.00480301
0.00463439
0.004424
0.0041708
0.00387511
0.00353578
0.00314314
0.00266735
0.0020479
0.00119791
0.00016756
6.65916e-05
0.000475952
0.000857062
0.00121579
0.00156571
0.00190593
0.00223213
0.00254068
0.00282958
0.00309823
0.0033469
0.0035764
0.00378779
0.00398219
0.00416078
0.00432466
0.00447487
0.00461235
0.00473796
0.00485247
0.00495655
0.00505076
0.00513558
0.00521132
0.0052782
0.00533622
0.00538514
0.00542442
0.00545306
0.00546942
0.00547112
0.00545522
0.00541792
0.00535463
0.00526028
0.00512971
0.00495832
0.00474266
0.00448058
0.00417045
0.00380808
0.00338017
0.00285458
0.00217206
0.00125155
0.000172065
6.73372e-05
0.000469877
0.000851875
0.00121949
0.00158301
0.00193906
0.00228168
0.00260642
0.00291096
0.00319455
0.00345745
0.00370046
0.00392466
0.00413123
0.00432137
0.00449622
0.00465688
0.00480433
0.00493949
0.00506318
0.0051761
0.00527887
0.00537199
0.00545581
0.00553054
0.0055962
0.00565251
0.00569887
0.00573421
0.00575685
0.00576433
0.00575352
0.00572045
0.00566035
0.00556798
0.00543796
0.00526534
0.00504601
0.00477664
0.00445364
0.00407005
0.00360954
0.00303817
0.00229686
0.0013068
0.000176881
6.78873e-05
0.000459483
0.000841053
0.00121754
0.00159462
0.00196584
0.00232369
0.00266313
0.00298168
0.0032786
0.0035542
0.0038093
0.00404502
0.00426257
0.00446317
0.00464803
0.00481827
0.00497493
0.00511898
0.00525126
0.00537254
0.00548348
0.0055846
0.00567629
0.00575877
0.00583204
0.0058958
0.0059494
0.0059917
0.00602098
0.00603475
0.00602969
0.00600163
0.00594568
0.00585641
0.00572824
0.00555582
0.00533434
0.00505929
0.00472522
0.00432276
0.0038333
0.00322184
0.00242883
0.00137104
0.000182556
6.81211e-05
0.000444391
0.000824766
0.00121083
0.00160177
0.00198762
0.00235951
0.0027121
0.00304301
0.00335165
0.00363842
0.00390421
0.00415015
0.00437749
0.0045875
0.0047814
0.00496036
0.00512547
0.00527772
0.00541802
0.00554716
0.00566585
0.00577465
0.00587398
0.00596405
0.00604487
0.0061161
0.00617704
0.00622648
0.00626269
0.00628324
0.00628451
0.00626219
0.00621126
0.00612613
0.006001
0.00583013
0.00560802
0.00532898
0.00498592
0.0045675
0.00405374
0.00341009
0.00257877
0.00146545
0.000191707
6.24797e-05
0.000220525
0.000295885
0.000293825
6.7681e-05
0.000294807
0.000289984
0.000294479
6.9346e-05
7.22428e-05
7.49878e-05
7.75496e-05
7.98873e-05
8.19972e-05
8.38933e-05
8.56089e-05
8.71892e-05
8.86806e-05
9.01207e-05
9.15294e-05
9.29068e-05
9.42668e-05
9.55213e-05
9.662e-05
9.75087e-05
9.81319e-05
9.84357e-05
9.83719e-05
9.79011e-05
9.69938e-05
9.56184e-05
9.37116e-05
9.11508e-05
8.76514e-05
8.26829e-05
7.62822e-05
0.000187866
7.45027e-05
0.0001127
0.000480497
0.000559903
0.000473964
0.000419932
0.000406318
0.00034644
0.000308709
0.000261789
0.000270131
0.000282973
0.000300887
0.000324362
0.000353852
0.000389277
0.000429791
0.000474009
0.000520514
0.000568284
0.000616634
0.000664813
0.000710111
0.000755604
0.000800622
0.000844287
0.000885557
0.000923232
0.000956013
0.000982656
0.0010021
0.00101332
0.00101511
0.00100561
0.000980263
0.000933476
0.00088438
0.000610105
8.80521e-05
0.000138695
0.000678009
0.000804525
0.000777882
0.000724517
0.000669612
0.000621267
0.000599912
0.000606042
0.000649185
0.000703133
0.000768715
0.0008462
0.000935006
0.00103321
0.00113771
0.00124517
0.00135305
0.00145992
0.00156504
0.00166753
0.00176663
0.00186401
0.00195769
0.00204488
0.00212221
0.00218578
0.00223135
0.00225476
0.00225222
0.0022201
0.00215413
0.00204807
0.00189061
0.00166195
0.00132778
0.000797695
0.000112881
0.000155558
0.000844225
0.00103147
0.00105515
0.00102545
0.000989971
0.000976846
0.00100142
0.00106221
0.00114954
0.00124878
0.00136014
0.0014832
0.00161641
0.00175693
0.00190125
0.00204609
0.00218913
0.00232917
0.0024656
0.00259761
0.00272505
0.00284704
0.00296
0.0030591
0.00313859
0.00319198
0.00321257
0.00319406
0.00313122
0.00301975
0.00285555
0.00263331
0.00234432
0.0019739
0.00149877
0.00089063
0.000137791
0.000168069
0.000987535
0.00124347
0.00131591
0.00132537
0.00132854
0.00135917
0.00142956
0.00153274
0.00165412
0.00178384
0.00192111
0.00206539
0.00221566
0.00237039
0.00252765
0.00268548
0.00284205
0.00299587
0.00314563
0.00328979
0.00342771
0.00355664
0.00367167
0.00376639
0.00383321
0.00386387
0.00385014
0.00378483
0.00366282
0.00348116
0.00323834
0.00293291
0.0025616
0.00211688
0.00158429
0.000943061
0.000162567
0.000177985
0.00111032
0.00143845
0.00155829
0.00160958
0.00165357
0.00172355
0.00182794
0.00195653
0.00209475
0.00223494
0.00237621
0.0025192
0.00266508
0.00281498
0.00296934
0.00312749
0.00328767
0.00344738
0.0036038
0.003754
0.00389655
0.00402743
0.00414075
0.00422894
0.00428306
0.00429356
0.00425126
0.00414866
0.00398145
0.00374884
0.00345253
0.00309501
0.00267718
0.00219518
0.00163674
0.000979851
0.000186989
0.000186142
0.00121354
0.00161308
0.00177683
0.00186559
0.00194402
0.00204265
0.00216632
0.00230387
0.00244255
0.00257665
0.00270646
0.00283484
0.00296581
0.00310321
0.0032493
0.00340402
0.0035651
0.00372882
0.00389077
0.00404639
0.00419355
0.00432737
0.00444119
0.00452649
0.00457324
0.00457076
0.004509
0.00438024
0.00418105
0.00391297
0.00358102
0.00319109
0.00274694
0.00224612
0.00167575
0.00101124
0.00021045
0.000193003
0.00129811
0.00176475
0.00196692
0.00208542
0.00218828
0.00230316
0.00243255
0.00256625
0.00269431
0.0028134
0.00292569
0.00303635
0.00315178
0.00327755
0.00341653
0.00356831
0.00372983
0.00389651
0.00406298
0.00422357
0.00437567
0.00451399
0.0046312
0.00471792
0.00476295
0.00475443
0.00468126
0.00453515
0.00431334
0.00401975
0.00366276
0.00325156
0.0027921
0.00228223
0.00170724
0.00103945
0.000232254
0.000198859
0.00136507
0.00189195
0.00212578
0.00226496
0.00238154
0.00250142
0.00262659
0.00274925
0.00286282
0.00296627
0.00306335
0.00316077
0.00326616
0.00338556
0.00352129
0.00367177
0.003833
0.0040001
0.00416786
0.00433057
0.00448554
0.00462772
0.00474937
0.00484019
0.00488769
0.0048785
0.00480014
0.0046432
0.00440496
0.00409164
0.00371535
0.00328875
0.00281986
0.0023063
0.00173093
0.00106308
0.000251824
0.00020391
0.00141559
0.00199419
0.00225219
0.00240301
0.00252379
0.00264062
0.00275668
0.00286741
0.00296926
0.00306268
0.00315187
0.00324388
0.00334657
0.0034656
0.00360206
0.00375277
0.00391252
0.00407646
0.00424049
0.00440012
0.00455313
0.0046957
0.00482015
0.00491544
0.0049676
0.00496148
0.00488277
0.00472015
0.00446992
0.00414015
0.00374717
0.00330765
0.00283193
0.00231734
0.00174423
0.00107961
0.000268774
0.000208311
0.00145089
0.00207168
0.00234617
0.00250057
0.00261877
0.00272891
0.00283633
0.00293944
0.00303661
0.00312832
0.00321793
0.00331185
0.00341769
0.00354061
0.00368058
0.00383263
0.00399005
0.00414779
0.00430315
0.00445394
0.00459887
0.00473635
0.00485962
0.00495739
0.00501439
0.00501349
0.00493828
0.00477471
0.00451641
0.00417224
0.00376315
0.00331073
0.00282832
0.00231339
0.00174413
0.00108649
0.000282894
0.0002122
0.00147228
0.0021252
0.00240878
0.00256056
0.00267316
0.00277768
0.00288113
0.00298369
0.00308414
0.00318175
0.00327805
0.0033783
0.00348991
0.00361819
0.0037626
0.00391668
0.00407178
0.00422193
0.00436554
0.00450314
0.00463481
0.00476162
0.00487867
0.00497529
0.00503546
0.00504034
0.00497156
0.00481179
0.00454986
0.00419318
0.00376741
0.00330024
0.00280919
0.0022929
0.00172811
0.00108138
0.000294136
0.000215721
0.00148125
0.00215596
0.00244185
0.00258756
0.00269575
0.00279949
0.00290559
0.00301438
0.00312413
0.00323227
0.00333809
0.00344551
0.00356212
0.00369428
0.00384215
0.00399831
0.00415175
0.00429467
0.00442583
0.00454829
0.00466427
0.00477675
0.00488345
0.00497505
0.00503567
0.00504543
0.00498483
0.00483376
0.00457391
0.00420755
0.00376433
0.00327935
0.00277596
0.00225556
0.00169462
0.00106232
0.000302604
0.000219047
0.00147966
0.00216542
0.00244782
0.00258738
0.00269614
0.0028058
0.00292043
0.00303955
0.00316092
0.00328048
0.00339529
0.00350779
0.0036259
0.00375803
0.00390646
0.00406378
0.00421631
0.00435335
0.00447306
0.00458058
0.00468147
0.00477901
0.00487377
0.00495819
0.00501699
0.00503001
0.00497812
0.00484046
0.00459015
0.00421903
0.00375867
0.00325264
0.00273191
0.00220299
0.00164369
0.00102814
0.000308574
0.000222426
0.00147029
0.00215494
0.00242937
0.00256641
0.00268309
0.00280486
0.00293112
0.00306068
0.00319191
0.00332031
0.00344104
0.00355468
0.00366923
0.00379556
0.00393982
0.00409611
0.00424786
0.00438037
0.00449028
0.00458454
0.00467228
0.00475688
0.00484109
0.00491909
0.00497612
0.00499169
0.00494843
0.00482851
0.00459712
0.00422926
0.00375468
0.00322581
0.00268249
0.00213918
0.00157755
0.000979307
0.000312499
0.000226406
0.00145921
0.00212509
0.00238879
0.00253029
0.0026625
0.00280009
0.00293739
0.0030736
0.00320932
0.0033412
0.00346312
0.00357332
0.00367874
0.0037923
0.0039256
0.0040769
0.00422683
0.00435537
0.0044566
0.00453909
0.00461562
0.00469057
0.00476731
0.00484236
0.00490097
0.0049211
0.00488717
0.00478946
0.00458862
0.00423592
0.0037541
0.00320431
0.00263469
0.00207049
0.00150117
0.00091884
0.000315008
6.79132e-05
0.00041762
0.000795897
0.00119645
0.0016074
0.00201349
0.00240418
0.00277408
0.00312119
0.00344529
0.00374697
0.00402718
0.00428709
0.00452798
0.00475113
0.00495783
0.00514929
0.00532664
0.00549093
0.00564313
0.00578411
0.00591464
0.00603535
0.00614669
0.00624891
0.00634202
0.00642564
0.00649901
0.00656079
0.00660903
0.00664104
0.00665314
0.0066409
0.00659915
0.00652209
0.00640359
0.00623729
0.00601661
0.00573417
0.00538058
0.00494228
0.00439876
0.00372021
0.00286723
0.00180153
0.000599326
6.64533e-05
0.000361612
0.000742764
0.00117037
0.00160979
0.0020397
0.00244958
0.00283559
0.00319723
0.00353521
0.00385047
0.0041441
0.00441728
0.0046713
0.0049075
0.00512718
0.0053316
0.00552196
0.00569934
0.00586478
0.00601924
0.00616358
0.00629852
0.00642458
0.00654204
0.0066509
0.00675072
0.00684064
0.00691913
0.00698386
0.00703162
0.00705878
0.00706083
0.00703242
0.0069676
0.00685986
0.00670221
0.00648695
0.0062052
0.00584585
0.00539438
0.00483205
0.00413733
0.0032922
0.00230047
0.00125738
6.48383e-05
0.000300762
0.000698579
0.00115656
0.00161993
0.00206693
0.00248818
0.00288218
0.00325061
0.00359532
0.00391754
0.00421831
0.00449882
0.00476044
0.00500458
0.00523261
0.00544585
0.00564556
0.00583294
0.00600891
0.00617442
0.00633047
0.00647785
0.00661717
0.00674876
0.00687254
0.00698803
0.00709424
0.00718959
0.00727149
0.00733638
0.00738041
0.00739905
0.0073868
0.0073377
0.00724511
0.00710158
0.00689872
0.00662684
0.00627419
0.00582642
0.00526731
0.00458225
0.00376724
0.00284849
0.00193311
0.000283386
0.000303786
0.000699307
0.00115755
0.00162848
0.00209126
0.00251805
0.00291402
0.0032843
0.00363153
0.00395684
0.00426097
0.004545
0.0048104
0.00505866
0.0052912
0.00550935
0.00571443
0.00590787
0.00609078
0.00626355
0.00642751
0.00658364
0.00673273
0.00687531
0.00701153
0.00714106
0.00726304
0.0073754
0.00747519
0.0075584
0.0076207
0.00765788
0.00766398
0.00763347
0.00756
0.00743569
0.00725197
0.00699914
0.0066657
0.00623831
0.00570316
0.00505022
0.00428232
0.00343209
0.00259566
9.59392e-05
0.000394456
0.000859237
0.00133374
0.00177535
0.00217006
0.00255518
0.00293536
0.00329902
0.00364272
0.00396577
0.0042683
0.00455114
0.00481559
0.00506307
0.00529493
0.00551243
0.00571688
0.00591565
0.00611259
0.00629185
0.00646275
0.00662724
0.00678618
0.00694007
0.00708843
0.00722984
0.00736361
0.00748783
0.00760062
0.00769923
0.00778044
0.00783821
0.00786384
0.00785389
0.00780317
0.00770254
0.00754386
0.00731839
0.00701571
0.00662408
0.00613185
0.00553176
0.0048288
0.00405326
0.00328167
0.000112273
0.000658948
0.00121821
0.00171302
0.00216308
0.00258906
0.00299837
0.00339306
0.00377197
0.00413355
0.00447636
0.00479919
0.00510114
0.00538134
0.00563846
0.00586963
0.00606823
0.00621827
0.00628312
0.00623485
0.0063417
0.00649062
0.0066449
0.0067979
0.00694794
0.00709358
0.00723633
0.00738537
0.00752735
0.00765878
0.0077787
0.0078775
0.00794583
0.00798441
0.00799513
0.00797129
0.0078975
0.00776801
0.0075764
0.00731388
0.00697079
0.00653742
0.00600815
0.00538771
0.00470046
0.00400305
0.000113742
0.000760435
0.00140453
0.00195867
0.00245039
0.00290934
0.00334496
0.00376094
0.00415847
0.00453753
0.00489746
0.00523732
0.00555612
0.00585276
0.00612584
0.00637322
0.00659162
0.0067766
0.00692629
0.00706226
0.00722258
0.00738975
0.00755074
0.00769825
0.00782399
0.00790907
0.00789805
0.00760368
0.00757032
0.00767319
0.00778945
0.00789903
0.00797694
0.00803325
0.00806555
0.00806325
0.00801373
0.00791436
0.00776047
0.0075441
0.00725856
0.00689538
0.00645006
0.00592627
0.00534157
0.00473545
0.000112021
0.000809347
0.00151277
0.00211257
0.00264915
0.00314726
0.00361649
0.00406122
0.00448368
0.00488492
0.00526529
0.00562474
0.00596302
0.00627981
0.00657475
0.00684743
0.00709765
0.00732598
0.00753559
0.00773504
0.00793052
0.00811795
0.00829177
0.00844637
0.00857419
0.00866217
0.00868792
0.00863311
0.00861596
0.00861039
0.0085182
0.00810008
0.00800953
0.00804337
0.00807594
0.00808338
0.00805241
0.00797605
0.0078549
0.00768539
0.00746186
0.00717428
0.00681936
0.00640019
0.00592741
0.00542708
0.00011056
0.00083648
0.00157111
0.00221027
0.00279089
0.00333041
0.0038368
0.00431432
0.00476561
0.00519247
0.00559613
0.00597745
0.0063371
0.00667567
0.00699373
0.00729194
0.0075712
0.00783281
0.00807879
0.00831173
0.00853259
0.0087397
0.00893001
0.00909959
0.00924325
0.00935402
0.00942434
0.00945485
0.00947194
0.009466
0.0093992
0.0092353
0.00909756
0.00891059
0.0084271
0.00810315
0.00805089
0.0079676
0.00785469
0.00771999
0.00755502
0.00733942
0.00707291
0.00675946
0.00640014
0.00601183
0.000109703
0.000846053
0.00159525
0.00227252
0.00289644
0.00347785
0.00402259
0.00453439
0.00501607
0.00546997
0.00589802
0.00630189
0.00668304
0.00704279
0.00738241
0.00770309
0.00800603
0.00829242
0.00856336
0.00881972
0.00906149
0.00928766
0.00949627
0.0096846
0.0098493
0.00998655
0.0100932
0.0101698
0.0102213
0.0102433
0.0102219
0.010149
0.0100438
0.00987648
0.00958697
0.00922222
0.00860406
0.00803889
0.00785207
0.0076997
0.00754699
0.00737332
0.00717783
0.00695654
0.00670309
0.00642278
0.000109569
0.000835916
0.00160152
0.00231491
0.00298035
0.00360255
0.00418499
0.0047307
0.00524256
0.00572329
0.0061754
0.00660122
0.00700286
0.00738224
0.00774111
0.00808104
0.00840342
0.00870938
0.0089998
0.00927514
0.00953531
0.00977963
0.0100067
0.0102147
0.0104012
0.0105639
0.0107007
0.0108108
0.010894
0.010948
0.0109668
0.0109463
0.010886
0.010772
0.0105834
0.0103172
0.00994424
0.00951709
0.00901956
0.00796854
0.0075738
0.00735676
0.00716685
0.00699069
0.00681414
0.00662166
0.000109667
0.000821504
0.00160213
0.00234889
0.00305304
0.00371359
0.00433171
0.00490967
0.00545026
0.00595653
0.00643147
0.00687793
0.00729856
0.00769576
0.00807171
0.00842829
0.00876711
0.00908943
0.00939618
0.00968783
0.00996444
0.0102255
0.0104701
0.0106969
0.010904
0.0110897
0.0112523
0.0113903
0.0115025
0.0115864
0.0116395
0.0116587
0.0116407
0.0115777
0.01146
0.0112811
0.0110338
0.0107231
0.0103288
0.00977707
0.00925557
0.00853112
0.00729473
0.00700079
0.00681896
0.00664597
0.000109985
0.000808788
0.00160431
0.00238182
0.00312135
0.00381701
0.00446791
0.00507558
0.00564275
0.00617267
0.00666872
0.00713418
0.00757215
0.00798543
0.00837656
0.00874772
0.00910076
0.00943715
0.00975795
0.0100638
0.0103549
0.0106311
0.0108915
0.0111352
0.0113608
0.0115668
0.0117516
0.0119136
0.0120513
0.0121624
0.0122453
0.0122978
0.0123167
0.0122975
0.0122344
0.0121227
0.0119585
0.01174
0.0114581
0.0110985
0.0106873
0.0101623
0.00945792
0.00875134
0.00740321
0.00674209
0.000110548
0.000800015
0.00161144
0.00241745
0.00318892
0.00391609
0.00459645
0.00523093
0.00582216
0.00637355
0.0068888
0.00737152
0.00782517
0.00825291
0.00865756
0.00904158
0.00940704
0.00975562
0.0100886
0.0104067
0.0107104
0.0109995
0.0112737
0.0115322
0.0117737
0.011997
0.0122007
0.0123833
0.0125433
0.0126786
0.0127872
0.0128682
0.012919
0.0129367
0.0129174
0.0128579
0.0127556
0.0126085
0.0124125
0.0121633
0.0118618
0.011489
0.0110271
0.0104999
0.00983311
0.00927306
0.000111313
0.000795738
0.00162432
0.00245676
0.00325679
0.00401186
0.0047183
0.00537659
0.00598929
0.00655994
0.00709244
0.00759071
0.00805847
0.00849916
0.00891585
0.00931122
0.00968756
0.0100467
0.0103901
0.0107186
0.0110329
0.011333
0.0116187
0.0118894
0.0121441
0.0123818
0.0126011
0.0128009
0.0129796
0.0131356
0.0132671
0.0133722
0.0134501
0.0134986
0.0135151
0.0134974
0.0134434
0.0133519
0.0132209
0.0130485
0.0128332
0.0125688
0.0122497
0.0118806
0.0114601
0.0110467
0.000112189
0.000795575
0.00164214
0.00249886
0.00332421
0.00410377
0.00483307
0.0055123
0.00614398
0.00673173
0.00727963
0.00779181
0.00827221
0.00872447
0.00915187
0.00955726
0.00994308
0.0103113
0.0106635
0.0110007
0.0113237
0.0116327
0.0119276
0.012208
0.0124732
0.0127222
0.0129541
0.0131676
0.0133614
0.0135343
0.0136847
0.0138108
0.0139113
0.0139853
0.014031
0.0140469
0.0140314
0.0139836
0.0139027
0.0137877
0.0136378
0.013451
0.0132257
0.0129641
0.0126706
0.0123626
0.000113078
0.000798579
0.00166319
0.00254191
0.0033895
0.00419036
0.00493957
0.00563711
0.00628546
0.00688832
0.00744989
0.00797446
0.00846612
0.00892869
0.00936557
0.00977977
0.0101738
0.0105498
0.0109093
0.0112537
0.0115836
0.0118995
0.0122015
0.0124892
0.0127621
0.0130196
0.0132607
0.0134845
0.01369
0.0138759
0.014041
0.014184
0.0143035
0.0143981
0.0144673
0.0145099
0.0145249
0.0145116
0.0144695
0.0143983
0.0142978
0.0141675
0.0140075
0.0138191
0.0136058
0.0133744
0.000113898
0.000803574
0.00168546
0.00258371
0.00345062
0.00426991
0.00503634
0.00574979
0.00641272
0.00702887
0.00760252
0.00813807
0.00863974
0.00911144
0.00955669
0.00997856
0.0103797
0.0107622
0.0111278
0.0114778
0.011813
0.012134
0.0124409
0.0127336
0.0130118
0.0132749
0.0135223
0.0137531
0.0139666
0.0141617
0.0143375
0.014493
0.014627
0.0147383
0.0148257
0.014889
0.0149276
0.0149409
0.0149287
0.0148909
0.0148275
0.0147389
0.0146253
0.0144881
0.0143295
0.0141532
0.000114592
0.00080941
0.00170706
0.00262226
0.00350573
0.00434079
0.00512203
0.00584924
0.00652484
0.0071526
0.00773687
0.00828211
0.0087926
0.00927235
0.00972493
0.0101534
0.0105606
0.0109485
0.0113189
0.0116731
0.0120121
0.0123365
0.0126465
0.0129421
0.0132232
0.0134893
0.0137401
0.0139748
0.0141929
0.0143936
0.0145762
0.0147398
0.0148835
0.0150065
0.0151079
0.0151868
0.0152428
0.015276
0.0152861
0.0152731
0.0152372
0.0151789
0.0150987
0.0149977
0.0148774
0.0147402
0.000115128
0.000815115
0.00172646
0.00265597
0.00355339
0.00440179
0.00519562
0.0059346
0.00662112
0.00725896
0.00785249
0.0084062
0.00892443
0.0094112
0.00987012
0.0103043
0.0107164
0.0111087
0.0114828
0.01184
0.0121815
0.0125077
0.012819
0.0131156
0.0133974
0.0136642
0.0139156
0.0141513
0.0143708
0.0145737
0.0147592
0.0149269
0.0150761
0.015206
0.0153161
0.0154056
0.0154742
0.0155213
0.015547
0.0155517
0.0155354
0.0154986
0.0154419
0.0153662
0.0152725
0.0151627
0.000115494
0.000819966
0.00174257
0.0026838
0.00359269
0.00445215
0.00525652
0.00600543
0.00670124
0.00734771
0.00794921
0.00851025
0.00903518
0.00952802
0.00999235
0.0104313
0.0108475
0.0112431
0.0116198
0.0119789
0.0123215
0.0126481
0.0129592
0.013255
0.0135355
0.0138007
0.0140505
0.0142845
0.0145025
0.0147043
0.0148894
0.0150575
0.015208
0.0153405
0.0154544
0.0155494
0.015625
0.0156809
0.015717
0.0157333
0.01573
0.0157076
0.0156667
0.0156079
0.0155322
0.0154409
0.000115692
0.000823481
0.00175479
0.0027052
0.00362324
0.00449164
0.00530462
0.00606172
0.00676526
0.00741898
0.00802724
0.00859452
0.00912515
0.00962312
0.010092
0.0105348
0.0109542
0.0113522
0.0117305
0.0120904
0.0124329
0.0127586
0.0130681
0.0133614
0.0136389
0.0139006
0.0141464
0.0143764
0.0145903
0.0147881
0.0149696
0.0151346
0.0152829
0.015414
0.0155276
0.0156235
0.0157013
0.0157607
0.0158017
0.0158243
0.0158285
0.0158147
0.0157833
0.0157351
0.0156706
0.0155909
0.000115732
0.000825393
0.00176287
0.00272008
0.00364511
0.00452046
0.00534021
0.00610385
0.00681364
0.00747328
0.0080871
0.00865955
0.00919492
0.00969714
0.0101697
0.0106156
0.0110372
0.0114368
0.0118158
0.0121755
0.0125169
0.0128405
0.0131469
0.0134364
0.0137092
0.0139655
0.0142055
0.0144291
0.0146366
0.0148279
0.015003
0.0151619
0.0153046
0.0154308
0.0155404
0.0156331
0.0157088
0.0157673
0.0158085
0.0158324
0.015839
0.0158287
0.0158017
0.0157586
0.0157001
0.0156268
0.000115628
0.000825598
0.00176686
0.00272871
0.00365873
0.00453917
0.00536397
0.00613256
0.00684715
0.00751142
0.00812965
0.00870625
0.00924542
0.00975102
0.0102264
0.0106746
0.0110978
0.0114981
0.0118769
0.0122355
0.0125747
0.0128951
0.0131972
0.0134815
0.0137482
0.0139975
0.0142298
0.0144452
0.0146441
0.0148266
0.0149928
0.015143
0.0152772
0.0153954
0.0154976
0.0155838
0.0156538
0.0157074
0.0157448
0.0157658
0.0157705
0.0157592
0.0157321
0.0156896
0.0156324
0.0155611
0.000115397
0.00082412
0.001767
0.00273155
0.00366477
0.00454859
0.00537684
0.00614887
0.00686689
0.00753453
0.00815603
0.00873575
0.00927781
0.00978596
0.0102635
0.0107131
0.0111372
0.0115374
0.0119153
0.0122719
0.0126079
0.0129241
0.013221
0.0134988
0.013758
0.0139989
0.0142219
0.0144274
0.0146157
0.0147873
0.0149425
0.0150816
0.0152048
0.0153124
0.0154044
0.015481
0.0155421
0.0155877
0.0156178
0.0156324
0.0156317
0.0156157
0.0155847
0.0155392
0.0154796
0.0154066
0.000115058
0.000821064
0.00176368
0.00272926
0.00366408
0.00454974
0.00537994
0.006154
0.00687411
0.00754391
0.00816759
0.00874945
0.0092935
0.00980339
0.0102823
0.0107327
0.0111569
0.0115564
0.0119326
0.0122864
0.0126186
0.0129297
0.0132202
0.0134905
0.013741
0.0139722
0.0141845
0.0143785
0.0145547
0.0147136
0.0148558
0.0149818
0.0150919
0.0151865
0.0152659
0.0153303
0.0153799
0.0154146
0.0154346
0.01544
0.0154307
0.0154071
0.0153693
0.0153176
0.0152527
0.0151751
0.000114627
0.000816592
0.00175736
0.00272254
0.00365759
0.00454372
0.00537452
0.00614928
0.00687025
0.00754105
0.00816585
0.00874888
0.00929407
0.00980492
0.0102844
0.010735
0.0111587
0.0115569
0.0119307
0.0122812
0.0126087
0.0129139
0.0131972
0.0134591
0.0136999
0.0139202
0.0141207
0.0143018
0.0144644
0.0146091
0.0147367
0.0148477
0.0149428
0.0150226
0.0150873
0.0151375
0.0151733
0.0151949
0.0152025
0.0151961
0.0151759
0.0151421
0.0150949
0.0150347
0.014962
0.0148776
0.000114121
0.000810899
0.00174853
0.00271215
0.00364625
0.00453166
0.00536183
0.00613612
0.00685679
0.0075275
0.00815242
0.00873571
0.00928121
0.00979229
0.0102718
0.0107219
0.0111444
0.0115408
0.0119118
0.0122582
0.0125805
0.0128792
0.0131546
0.0134072
0.0136375
0.013846
0.0140335
0.0142007
0.0143485
0.0144777
0.0145892
0.0146839
0.0147625
0.0148258
0.0148742
0.0149084
0.0149287
0.0149353
0.0149286
0.0149086
0.0148755
0.0148295
0.014771
0.0147002
0.0146177
0.0145243
0.000113556
0.000804193
0.00173766
0.00269878
0.00363099
0.00451464
0.00534314
0.00611588
0.00683521
0.00750484
0.00812895
0.00871165
0.00925668
0.00976727
0.0102461
0.0106952
0.0111162
0.0115101
0.0118778
0.0122198
0.0125364
0.012828
0.013095
0.0133377
0.0135567
0.0137527
0.0139264
0.0140788
0.0142108
0.0143234
0.0144179
0.014495
0.014556
0.0146015
0.0146324
0.0146493
0.0146527
0.014643
0.0146205
0.0145853
0.0145378
0.0144782
0.0144067
0.0143237
0.0142297
0.0141258
0.000112947
0.000796683
0.00172522
0.00268313
0.00361264
0.0044937
0.00531962
0.0060899
0.00680697
0.00747463
0.00809707
0.00867838
0.00922223
0.0097317
0.0102093
0.0106569
0.0110758
0.0114669
0.0118309
0.0121681
0.0124786
0.0127628
0.0130209
0.0132534
0.0134606
0.0136435
0.0138028
0.0139397
0.0140552
0.0141506
0.0142271