/*--------------------------------*- C++ -*----------------------------------*\
  =========                 |
  \\      /  F ield         | OpenFOAM: The Open Source CFD Toolbox
   \\    /   O peration     | Website:  https://openfoam.org
    \\  /    A nd           | Version:  7
     \\/     M anipulation  |
\*---------------------------------------------------------------------------*/
FoamFile
{
    version     2.0;
    format      ascii;
    class       volScalarField;
    location    "0.5";
    object      p;
}
// * * * * * * * * * * * * * * * * * * * * * * * * * * * * * * * * * * * * * //

dimensions      [1 -1 -2 0 0 0 0];

internalField   nonuniform List<scalar> 
9072
(
638.899
637.526
639.001
642.918
648.397
654.425
660.51
666.401
672.023
677.376
682.5
687.452
692.296
697.09
701.893
706.756
711.723
716.835
722.123
727.617
733.339
739.309
745.541
752.049
758.844
765.939
773.35
781.099
789.226
797.795
806.831
816.369
826.494
837.305
848.862
861.159
874.043
887.104
899.593
910.381
918.616
921.985
921.072
922.475
930.985
940.275
609.593
607.902
608.839
612.261
617.224
622.848
628.668
634.41
639.97
645.324
650.491
655.513
660.444
665.335
670.239
675.205
680.276
685.49
690.881
696.477
702.304
708.382
714.728
721.359
728.29
735.536
743.117
751.06
759.401
768.192
777.5
787.38
797.916
809.204
821.317
834.258
847.882
861.758
875.058
886.449
894.879
897.832
893.826
890.98
895.019
906.303
579.525
578.053
578.936
581.83
586.189
591.287
596.706
602.177
607.574
612.848
617.997
623.046
628.034
633.003
638.001
643.069
648.249
653.578
659.088
664.809
670.766
676.982
683.478
690.271
697.38
704.826
712.633
720.831
729.459
738.574
748.244
758.539
769.538
781.327
793.965
807.434
821.556
835.865
849.491
860.994
869.175
871.928
866.818
861.424
859.902
873.251
549.095
548.004
548.981
551.59
555.477
560.105
565.125
570.292
575.476
580.613
585.688
590.711
595.71
600.719
605.775
610.919
616.187
621.614
627.232
633.069
639.152
645.506
652.151
659.11
666.404
674.055
682.091
690.546
699.459
708.885
718.892
729.554
740.943
753.126
766.136
779.92
794.257
808.645
822.204
833.514
841.267
843.926
838.605
832.966
827.939
842.357
518.586
517.943
519.084
521.518
525.056
529.299
533.963
538.835
543.793
548.767
553.734
558.694
563.666
568.678
573.762
578.951
584.281
589.782
595.487
601.424
607.62
614.098
620.883
627.997
635.464
643.309
651.56
660.252
669.426
679.131
689.433
700.4
712.093
724.558
737.797
751.719
766.07
780.328
793.635
804.676
812.115
814.84
810.996
805.729
799.473
813.574
488.1
487.926
489.243
491.546
494.807
498.726
503.074
507.67
512.402
517.204
522.046
526.923
531.846
536.838
541.925
547.139
552.509
558.068
563.845
569.867
576.161
582.753
589.666
596.926
604.556
612.582
621.034
629.946
639.357
649.312
659.872
671.095
683.026
695.691
709.062
723.014
737.267
751.299
764.298
775.083
782.388
785.23
782.599
778.898
774.261
787.464
457.615
457.949
459.403
461.605
464.64
468.279
472.342
476.681
481.197
485.826
490.536
495.319
500.18
505.137
510.213
515.436
520.835
526.438
532.274
538.37
544.753
551.45
558.484
565.88
573.664
581.862
590.503
599.619
609.246
619.427
630.212
641.65
653.771
666.575
680.01
693.925
708.022
721.792
734.477
745.035
752.336
755.524
754.315
752.366
750.432
763.934
427.067
427.912
429.498
431.638
434.485
437.881
441.69
445.794
450.105
454.567
459.145
463.828
468.62
473.534
478.59
483.813
489.229
494.867
500.754
506.916
513.381
520.175
527.322
534.849
542.78
551.141
559.96
569.266
579.093
589.477
600.46
612.079
624.347
637.246
650.699
664.535
678.448
691.946
704.331
714.689
722.041
725.688
725.635
725.468
726.727
742.01
396.44
397.751
399.482
401.596
404.291
407.476
411.059
414.948
419.071
423.374
427.824
432.409
437.13
441.996
447.026
452.242
457.671
463.337
469.268
475.49
482.03
488.915
496.171
503.822
511.894
520.411
529.399
538.885
548.896
559.464
570.621
582.394
594.779
607.74
621.18
634.914
648.633
661.866
673.974
684.151
691.562
695.664
696.638
698.035
702.75
720.531
365.752
367.448
369.339
371.449
374.016
377.016
380.398
384.095
388.046
392.202
396.533
401.023
405.673
410.491
415.493
420.7
426.136
431.826
437.797
444.075
450.686
457.658
465.018
472.789
480.997
489.665
498.815
508.47
518.654
529.39
540.704
552.609
565.09
578.091
591.502
605.126
618.654
631.639
643.493
653.503
660.955
665.451
667.339
669.999
678.019
698.555
335.014
337.025
339.068
341.174
343.627
346.463
349.667
353.193
356.99
361.013
365.234
369.638
374.221
378.992
383.966
389.162
394.604
400.316
406.324
412.654
419.334
426.39
433.85
441.739
450.08
458.895
468.202
478.02
488.367
499.26
510.716
522.74
535.302
548.332
561.708
575.224
588.576
601.335
612.958
622.808
630.27
635.067
637.723
641.443
652.322
675.296
304.229
306.501
308.671
310.759
313.101
315.787
318.832
322.209
325.87
329.777
333.899
338.224
342.747
347.475
352.422
357.608
363.056
368.789
374.833
381.213
387.959
395.097
402.656
410.661
419.133
428.092
437.554
447.531
458.035
469.077
480.667
492.802
505.438
518.494
531.837
545.259
558.454
571.013
582.428
592.118
599.547
604.525
607.716
612.154
625.246
650.056
273.402
275.887
278.146
280.192
282.418
284.963
287.867
291.114
294.66
298.466
302.503
306.758
311.228
315.918
320.842
326.02
331.474
337.229
343.308
349.738
356.548
363.767
371.424
379.543
388.146
397.251
406.866
417
427.658
438.845
450.567
462.809
475.521
488.608
501.93
515.275
528.341
540.73
551.96
561.491
568.835
573.846
577.255
581.861
596.393
621.926
242.539
245.189
247.489
249.465
251.564
253.973
256.753
259.891
263.341
267.061
271.027
275.223
279.647
284.304
289.208
294.38
299.841
305.618
311.733
318.212
325.085
332.385
340.139
348.373
357.109
366.361
376.133
386.425
397.237
408.571
420.425
432.781
445.576
458.707
472.027
485.324
498.294
510.549
521.622
530.998
538.207
543.095
546.333
550.367
565.436
589.697
211.652
214.416
216.706
218.579
220.534
222.808
225.478
228.528
231.901
235.555
239.462
243.612
247.999
252.63
257.519
262.686
268.157
273.956
280.106
286.632
293.567
300.944
308.795
317.145
326.015
335.418
345.351
355.806
366.776
378.26
390.252
402.73
415.623
428.815
442.159
455.44
468.354
480.514
491.465
500.696
507.731
512.341
514.985
517.534
531.537
551.278
180.784
183.594
185.819
187.526
189.294
191.424
193.998
196.981
200.303
203.914
207.787
211.91
216.28
220.901
225.787
230.962
236.449
242.277
248.464
255.036
262.031
269.484
277.428
285.891
294.893
304.445
314.539
325.153
336.278
347.909
360.038
372.639
385.633
398.893
412.273
425.562
438.447
450.547
461.407
470.513
477.349
481.549
483.182
483.278
491.604
503.022
321.284
321.246
321.189
321.114
321.017
320.894
320.764
320.619
320.472
320.332
320.187
320.046
319.913
319.791
319.685
319.596
319.528
319.481
319.455
319.452
319.47
319.509
319.571
319.654
319.759
319.886
320.033
320.199
320.381
320.574
320.774
320.974
321.166
321.34
321.48
321.556
321.555
321.505
321.259
321.226
321.179
321.099
320.998
320.882
320.749
320.609
320.46
320.306
320.16
320.017
319.883
319.76
319.653
319.563
319.494
319.447
319.421
319.417
319.433
319.472
319.532
319.613
319.715
319.839
319.983
320.146
320.325
320.514
320.71
320.906
321.094
321.263
321.398
321.484
321.508
321.471
321.241
321.205
321.157
321.079
320.976
320.857
320.722
320.58
320.432
320.279
320.131
319.989
319.854
319.73
319.621
319.531
319.461
319.412
319.385
319.38
319.395
319.431
319.487
319.565
319.664
319.784
319.925
320.084
320.258
320.445
320.637
320.83
321.017
321.187
321.328
321.428
321.465
321.435
321.225
321.182
321.13
321.052
320.949
320.828
320.693
320.55
320.402
320.251
320.103
319.959
319.823
319.698
319.588
319.496
319.425
319.375
319.346
319.339
319.352
319.386
319.44
319.514
319.61
319.727
319.864
320.02
320.193
320.377
320.569
320.762
320.95
321.124
321.272
321.383
321.426
321.397
321.21
321.158
321.1
321.02
320.917
320.797
320.663
320.519
320.371
320.22
320.071
319.927
319.789
319.663
319.551
319.457
319.384
319.333
319.304
319.295
319.307
319.338
319.39
319.462
319.555
319.67
319.805
319.96
320.131
320.316
320.507
320.701
320.891
321.069
321.223
321.339
321.386
321.356
321.193
321.133
321.069
320.986
320.883
320.762
320.628
320.484
320.335
320.184
320.035
319.889
319.75
319.622
319.508
319.413
319.339
319.288
319.258
319.248
319.259
319.289
319.339
319.409
319.5
319.612
319.745
319.9
320.071
320.256
320.448
320.642
320.834
321.015
321.173
321.293
321.344
321.312
321.174
321.106
321.035
320.95
320.845
320.723
320.589
320.445
320.295
320.144
319.994
319.847
319.706
319.576
319.46
319.364
319.29
319.238
319.208
319.198
319.208
319.237
319.285
319.354
319.442
319.552
319.684
319.837
320.009
320.194
320.387
320.582
320.775
320.958
321.12
321.244
321.298
321.264
321.15
321.075
320.999
320.911
320.804
320.681
320.546
320.401
320.251
320.099
319.947
319.799
319.657
319.525
319.408
319.311
319.236
319.185
319.156
319.146
319.155
319.183
319.23
319.296
319.382
319.49
319.62
319.772
319.944
320.13
320.323
320.518
320.712
320.898
321.064
321.191
321.248
321.213
321.122
321.043
320.961
320.869
320.76
320.636
320.5
320.354
320.203
320.049
319.897
319.748
319.604
319.47
319.351
319.254
319.18
319.13
319.101
319.092
319.101
319.127
319.172
319.236
319.319
319.424
319.551
319.703
319.876
320.062
320.256
320.451
320.646
320.834
321.004
321.136
321.196
321.158
321.091
321.007
320.921
320.826
320.715
320.589
320.451
320.304
320.151
319.997
319.844
319.694
319.549
319.413
319.293
319.194
319.121
319.072
319.045
319.036
319.045
319.07
319.112
319.173
319.253
319.354
319.479
319.629
319.803
319.991
320.185
320.381
320.576
320.766
320.94
321.078
321.14
321.1
321.057
320.97
320.88
320.782
320.669
320.541
320.401
320.252
320.098
319.943
319.79
319.639
319.493
319.355
319.232
319.133
319.06
319.014
318.988
318.98
318.988
319.011
319.051
319.109
319.185
319.282
319.402
319.551
319.726
319.916
320.111
320.307
320.502
320.694
320.873
321.017
321.083
321.038
321.02
320.932
320.838
320.737
320.622
320.492
320.35
320.199
320.044
319.888
319.735
319.584
319.436
319.296
319.171
319.071
318.999
318.955
318.931
318.923
318.931
318.953
318.99
319.044
319.115
319.206
319.321
319.468
319.645
319.838
320.034
320.229
320.424
320.617
320.801
320.953
321.023
320.973
320.981
320.893
320.796
320.693
320.575
320.444
320.299
320.147
319.99
319.834
319.681
319.53
319.381
319.239
319.11
319.008
318.938
318.896
318.874
318.867
318.874
318.894
318.929
318.978
319.045
319.129
319.238
319.381
319.561
319.757
319.955
320.149
320.342
320.535
320.725
320.886
320.96
320.904
320.939
320.854
320.755
320.65
320.53
320.397
320.25
320.095
319.938
319.782
319.629
319.478
319.328
319.183
319.051
318.946
318.877
318.838
318.818
318.812
318.818
318.837
318.868
318.914
318.975
319.051
319.151
319.29
319.474
319.676
319.874
320.067
320.257
320.449
320.644
320.817
320.897
320.831
320.895
320.817
320.715
320.608
320.487
320.352
320.203
320.046
319.887
319.731
319.579
319.429
319.279
319.13
318.992
318.885
318.818
318.781
318.764
318.759
318.764
318.781
318.809
318.851
318.906
318.974
319.064
319.198
319.387
319.595
319.794
319.983
320.17
320.358
320.555
320.742
320.832
320.757
320.85
320.782
320.679
320.57
320.448
320.311
320.16
320
319.839
319.684
319.533
319.384
319.232
319.08
318.937
318.826
318.76
318.728
318.713
318.708
318.712
318.727
318.753
318.791
318.84
318.898
318.975
319.1
319.293
319.508
319.711
319.897
320.076
320.254
320.449
320.651
320.761
320.687
132.552
135.211
137.29
138.595
139.961
141.85
144.307
147.235
150.522
154.106
157.961
162.08
166.456
171.095
176.01
181.225
186.77
192.671
198.944
205.61
212.712
220.293
228.389
237.029
246.235
256.015
266.348
277.197
288.544
300.383
312.707
325.481
338.619
351.971
365.399
378.706
391.571
403.612
414.384
423.36
429.95
433.531
433.48
429.127
419.681
391.928
67.2174
68.4808
70.0923
70.6687
71.5261
73.3589
75.994
79.0918
82.4309
85.9679
89.735
93.7591
98.0505
102.623
107.504
112.731
118.348
124.391
130.849
137.721
145.05
152.887
161.27
170.23
179.79
189.957
200.68
211.874
223.518
235.629
248.219
261.269
274.668
288.205
301.79
315.271
328.291
340.48
351.44
360.696
367.705
371.885
372.599
369.04
360.711
350.996
18.4832
16.7674
17.0987
17.3231
17.7622
19.0172
20.8553
22.945
25.0991
27.349
29.8025
32.5388
35.5996
39.0218
42.8583
47.1782
52.0593
57.5711
63.6648
70.2618
77.4248
85.2122
93.6724
102.843
112.767
123.459
134.762
146.419
158.41
170.819
183.712
197.128
210.935
224.778
238.683
252.6
266.046
278.662
290.151
300.143
308.23
314.033
317.298
318.043
317.051
316.567
-0.13309
0.121971
0.144833
0.0985916
0.0991729
0.276608
0.684111
1.22139
1.8297
2.50779
3.28459
4.18622
5.22538
6.41215
7.76765
9.32716
11.1372
13.2472
15.6308
18.5912
22.3417
26.9198
32.4747
39.1862
47.3016
57.0988
68.4068
80.4695
92.9021
105.753
119.087
132.999
147.43
161.612
175.953
190.672
204.881
218.185
230.466
241.481
250.966
258.692
264.637
269.106
272.861
276.9
0.0253889
0.0344011
0.0445984
0.0512062
0.0591587
0.0591336
0.0543901
0.0501532
0.0426967
0.033012
0.0238522
0.016851
0.012409
0.0104373
0.0108034
0.0134811
0.0181309
0.0216752
0.0370283
0.383821
1.05375
2.03348
3.41849
5.34538
8.02237
11.7712
16.8448
23.372
31.6763
41.6599
53.8116
68.8017
84.7824
98.7742
113.151
129.134
144.518
158.764
172.087
184.339
195.359
204.976
213.306
220.75
228.028
236.217
-0.0517503
-0.0468964
-0.0354616
-0.0272168
-0.0196474
-0.0100819
0.000465949
0.00905118
0.0149616
0.0188373
0.0214719
0.0234042
0.0249599
0.0263603
0.0277896
0.0294475
0.0316206
0.034794
0.0403614
0.0309635
0.0141887
0.00803217
0.0118025
0.019177
0.0272223
0.0387203
0.0770479
0.545314
2.16572
4.94965
9.63905
18.0763
29.1578
38.5605
51.4324
69.1881
85.1366
99.8595
114.281
128.023
140.811
152.29
162.676
172.465
182.279
193.105
-0.115609
-0.114732
-0.109188
-0.102708
-0.096676
-0.0900767
-0.0833945
-0.0777773
-0.0736543
-0.0708154
-0.0688081
-0.0671981
-0.0656573
-0.0639528
-0.0619086
-0.0593456
-0.0559526
-0.0510071
-0.0434366
-0.033306
-0.0306492
-0.0302577
-0.0293087
-0.0273544
-0.0233069
-0.0132861
0.00980688
0.0338735
0.0160849
-0.0217961
-0.0189139
0.406952
1.99945
4.69358
10.4105
21.1573
32.3008
44.1905
57.642
71.7734
86.3158
99.7216
112.013
123.739
135.208
147.252
-0.185238
-0.184102
-0.180113
-0.174867
-0.169642
-0.164408
-0.159396
-0.155087
-0.151732
-0.149239
-0.147321
-0.145661
-0.143998
-0.142134
-0.139925
-0.137253
-0.133958
-0.129732
-0.124245
-0.118192
-0.114555
-0.111768
-0.108481
-0.10422
-0.0984104
-0.0899261
-0.0795629
-0.0782728
-0.0821593
-0.0759165
-0.0475961
-0.0356249
-0.113059
-0.224613
-0.165909
1.55536
5.6205
9.14837
12.9224
21.1524
34.113
47.2009
60.4176
73.8929
86.6857
99.3213
-0.257569
-0.255629
-0.251592
-0.246683
-0.241885
-0.237259
-0.232919
-0.229094
-0.225908
-0.223306
-0.221112
-0.219122
-0.217151
-0.215047
-0.212695
-0.21001
-0.20692
-0.203341
-0.19931
-0.195324
-0.191917
-0.188488
-0.184494
-0.179715
-0.173961
-0.167016
-0.159656
-0.15572
-0.154871
-0.150809
-0.141901
-0.143501
-0.149718
-0.136507
-0.137638
-0.257376
-0.462968
-0.560949
-0.415734
0.582853
2.18388
5.14181
12.9387
24.8095
37.1072
49.5554
-0.330368
-0.327698
-0.32347
-0.318831
-0.314463
-0.31036
-0.306549
-0.303124
-0.300132
-0.29753
-0.295208
-0.293031
-0.290873
-0.288624
-0.286197
-0.283524
-0.280559
-0.27728
-0.273745
-0.270179
-0.266724
-0.263138
-0.259166
-0.254681
-0.249628
-0.244035
-0.238351
-0.234179
-0.232066
-0.230043
-0.227528
-0.22917
-0.231386
-0.223802
-0.207864
-0.190682
-0.216768
-0.372693
-0.695861
-1.05577
-1.58819
-2.34871
-4.78825
-5.5799
-2.64979
3.2233
-0.40376
-0.400325
-0.395946
-0.391552
-0.38757
-0.383912
-0.380534
-0.377454
-0.374673
-0.372151
-0.369813
-0.367571
-0.365336
-0.363031
-0.360592
-0.357972
-0.355132
-0.352058
-0.348785
-0.345414
-0.34201
-0.338476
-0.334691
-0.330596
-0.326204
-0.321628
-0.317211
-0.313732
-0.311501
-0.309858
-0.308634
-0.309765
-0.313166
-0.314861
-0.31303
-0.308555
-0.306253
-0.304371
-0.302255
-0.385825
-0.718669
-1.01401
-2.07895
-3.29078
-5.34788
-9.74141
-0.477408
-0.473515
-0.469113
-0.464962
-0.461304
-0.457993
-0.45494
-0.452121
-0.449512
-0.447075
-0.444758
-0.442501
-0.440244
-0.43793
-0.435514
-0.432962
-0.430247
-0.427357
-0.424307
-0.421145
-0.417899
-0.414532
-0.411002
-0.407303
-0.403487
-0.399686
-0.396162
-0.393331
-0.39137
-0.390098
-0.389588
-0.39072
-0.39369
-0.397257
-0.401621
-0.408743
-0.418278
-0.424744
-0.418316
-0.402334
-0.415201
-0.427942
-0.590279
-1.05027
-1.57704
-2.65648
-0.551357
-0.547241
-0.542972
-0.539097
-0.535721
-0.532677
-0.529863
-0.527231
-0.524749
-0.522384
-0.520098
-0.517849
-0.515597
-0.5133
-0.510925
-0.508446
-0.505843
-0.503109
-0.500248
-0.497283
-0.49423
-0.491085
-0.487845
-0.484539
-0.481235
-0.47806
-0.47521
-0.472941
-0.471406
-0.47063
-0.470749
-0.472167
-0.474982
-0.478874
-0.484324
-0.492715
-0.50475
-0.519443
-0.531894
-0.537106
-0.544123
-0.527041
-0.490418
-0.503698
-0.607676
-0.914254
-0.625649
-0.621522
-0.617505
-0.613928
-0.610801
-0.607966
-0.605323
-0.602823
-0.600434
-0.598128
-0.595876
-0.593649
-0.591419
-0.589156
-0.586831
-0.584427
-0.581928
-0.579327
-0.576628
-0.573845
-0.570993
-0.568086
-0.565145
-0.562214
-0.559367
-0.556719
-0.554423
-0.552664
-0.551585
-0.551285
-0.551912
-0.553694
-0.556736
-0.561013
-0.566818
-0.5748
-0.585484
-0.598845
-0.613584
-0.628866
-0.647448
-0.656312
-0.651971
-0.650399
-0.633845
-0.641316
-0.700329
-0.696365
-0.692661
-0.689382
-0.686475
-0.683802
-0.681282
-0.678875
-0.676553
-0.674295
-0.672079
-0.669883
-0.667686
-0.665464
-0.663196
-0.660868
-0.658467
-0.65599
-0.65344
-0.650829
-0.648179
-0.645512
-0.642864
-0.640284
-0.637846
-0.635653
-0.633832
-0.632529
-0.631877
-0.631998
-0.633032
-0.635151
-0.638471
-0.643071
-0.649142
-0.656992
-0.666828
-0.678575
-0.691824
-0.706639
-0.724129
-0.740704
-0.757349
-0.777823
-0.790383
-0.818073
-0.775423
-0.771743
-0.76837
-0.765369
-0.76265
-0.760105
-0.757678
-0.755338
-0.753068
-0.75085
-0.748669
-0.746508
-0.744349
-0.742174
-0.739966
-0.737713
-0.735408
-0.73305
-0.730644
-0.728204
-0.725754
-0.723325
-0.720956
-0.718702
-0.716632
-0.714839
-0.713431
-0.712533
-0.712266
-0.712751
-0.71412
-0.716516
-0.720058
-0.724848
-0.73103
-0.738781
-0.7482
-0.759223
-0.771628
-0.78535
-0.800667
-0.816634
-0.834239
-0.855498
-0.877125
-0.90266
-0.850919
-0.847594
-0.844535
-0.841779
-0.839222
-0.836786
-0.834434
-0.832151
-0.829924
-0.827744
-0.825599
-0.823475
-0.821358
-0.819233
-0.817088
-0.814912
-0.812703
-0.810462
-0.808198
-0.805927
-0.803675
-0.801476
-0.799372
-0.797419
-0.795682
-0.794243
-0.793201
-0.792661
-0.792736
-0.793537
-0.795185
-0.797804
-0.801506
-0.806389
-0.812565
-0.820148
-0.829206
-0.839717
-0.851561
-0.864631
-0.878904
-0.89396
-0.910071
-0.928075
-0.947233
-0.967326
-0.926767
-0.923819
-0.921045
-0.9185
-0.916084
-0.913743
-0.911461
-0.909232
-0.907051
-0.904912
-0.902807
-0.900725
-0.898656
-0.896587
-0.894508
-0.892414
-0.890303
-0.88818
-0.886058
-0.883954
-0.881895
-0.879916
-0.878062
-0.876385
-0.87495
-0.87383
-0.873113
-0.872892
-0.873268
-0.874345
-0.876229
-0.879029
-0.882845
-0.887766
-0.893876
-0.901255
-0.909954
-0.919971
-0.931241
-0.943668
-0.957153
-0.971461
-0.986568
-1.00262
-1.0194
-1.03648
-1.0029
-1.00031
-0.997784
-0.995419
-0.993127
-0.990875
-0.988663
-0.986492
-0.984363
-0.982272
-0.980215
-0.978184
-0.976171
-0.974166
-0.972162
-0.970156
-0.96815
-0.96615
-0.964172
-0.962233
-0.960362
-0.958595
-0.956974
-0.955554
-0.954393
-0.953561
-0.953135
-0.953198
-0.953843
-0.955161
-0.95725
-0.960202
-0.964104
-0.969031
-0.975053
-0.982226
-0.990587
-1.00014
-1.01084
-1.0226
-1.03529
-1.04876
-1.06286
-1.07752
-1.09263
-1.10764
-1.07923
-1.07697
-1.07466
-1.07244
-1.07026
-1.06809
-1.06595
-1.06385
-1.06178
-1.05974
-1.05774
-1.05577
-1.05382
-1.05189
-1.04997
-1.04807
-1.04617
-1.0443
-1.04247
-1.0407
-1.03902
-1.03745
-1.03606
-1.03487
-1.03397
-1.0334
-1.03323
-1.03356
-1.03444
-1.03598
-1.03824
-1.04133
-1.0453
-1.05023
-1.05616
-1.06314
-1.07119
-1.08033
-1.0905
-1.10162
-1.11357
-1.12619
-1.13929
-1.15272
-1.16644
-1.17987
-1.1557
-1.15372
-1.15159
-1.1495
-1.14742
-1.14533
-1.14326
-1.14123
-1.13922
-1.13725
-1.13532
-1.13342
-1.13155
-1.1297
-1.12787
-1.12607
-1.1243
-1.12257
-1.12089
-1.11929
-1.11779
-1.11643
-1.11525
-1.11429
-1.11362
-1.1133
-1.11338
-1.11393
-1.11504
-1.11678
-1.11921
-1.12241
-1.12645
-1.13138
-1.13724
-1.14405
-1.15184
-1.1606
-1.1703
-1.18086
-1.19215
-1.204
-1.21622
-1.22861
-1.2412
-1.25344
-1.23225
-1.2305
-1.22852
-1.22655
-1.22456
-1.22255
-1.22056
-1.21859
-1.21666
-1.21476
-1.2129
-1.21108
-1.20929
-1.20753
-1.20581
-1.20412
-1.20248
-1.20089
-1.19937
-1.19794
-1.19663
-1.19547
-1.1945
-1.19377
-1.19332
-1.19323
-1.19353
-1.19431
-1.19563
-1.19755
-1.20014
-1.20346
-1.20757
-1.21251
-1.21832
-1.225
-1.23258
-1.24103
-1.25034
-1.26041
-1.27113
-1.28234
-1.29383
-1.3054
-1.31711
-1.32843
-1.30885
-1.30728
-1.30544
-1.30357
-1.30166
-1.29973
-1.29781
-1.29592
-1.29406
-1.29225
-1.29047
-1.28873
-1.28702
-1.28536
-1.28375
-1.28218
-1.28067
-1.27923
-1.27787
-1.27662
-1.27549
-1.27454
-1.27378
-1.27326
-1.27304
-1.27316
-1.27369
-1.27468
-1.27619
-1.27828
-1.28102
-1.28447
-1.28865
-1.29363
-1.29941
-1.30601
-1.31344
-1.32166
-1.33065
-1.34034
-1.35062
-1.36132
-1.37224
-1.38319
-1.39422
-1.40485
-1.38548
-1.38405
-1.38233
-1.38055
-1.37872
-1.37687
-1.37503
-1.37322
-1.37144
-1.3697
-1.36801
-1.36636
-1.36475
-1.3632
-1.36169
-1.36024
-1.35886
-1.35757
-1.35637
-1.35529
-1.35436
-1.3536
-1.35306
-1.35276
-1.35276
-1.3531
-1.35384
-1.35503
-1.35673
-1.359
-1.36189
-1.36545
-1.36972
-1.37475
-1.38054
-1.38709
-1.39442
-1.40249
-1.41126
-1.42068
-1.43063
-1.44096
-1.45148
-1.46199
-1.47254
-1.48269
-1.46212
-1.4608
-1.45919
-1.45748
-1.45573
-1.45397
-1.45221
-1.45048
-1.44879
-1.44714
-1.44554
-1.44398
-1.44248
-1.44103
-1.43964
-1.43831
-1.43707
-1.43592
-1.43488
-1.43398
-1.43323
-1.43267
-1.43233
-1.43225
-1.43247
-1.43303
-1.43399
-1.43539
-1.43728
-1.43972
-1.44276
-1.44645
-1.45082
-1.45591
-1.46172
-1.46828
-1.47555
-1.48353
-1.49218
-1.50142
-1.51116
-1.52126
-1.53153
-1.54179
-1.55206
-1.56194
-1.53877
-1.53754
-1.53601
-1.53439
-1.53271
-1.53103
-1.52936
-1.52772
-1.52612
-1.52457
-1.52306
-1.52161
-1.52021
-1.51887
-1.5176
-1.5164
-1.5153
-1.51429
-1.51341
-1.51268
-1.51212
-1.51175
-1.51162
-1.51175
-1.51219
-1.51297
-1.51415
-1.51576
-1.51785
-1.52047
-1.52367
-1.52749
-1.53198
-1.53715
-1.54303
-1.54961
-1.55689
-1.56485
-1.57345
-1.58261
-1.59226
-1.60226
-1.61243
-1.6226
-1.63278
-1.64259
-1.61543
-1.61426
-1.61281
-1.61125
-1.60966
-1.60806
-1.60649
-1.60494
-1.60344
-1.60199
-1.60059
-1.59924
-1.59796
-1.59673
-1.59558
-1.59452
-1.59355
-1.59269
-1.59197
-1.5914
-1.59102
-1.59085
-1.59092
-1.59126
-1.59192
-1.59293
-1.59433
-1.59615
-1.59845
-1.60127
-1.60465
-1.60863
-1.61325
-1.61854
-1.62451
-1.63117
-1.63851
-1.6465
-1.65513
-1.66431
-1.67397
-1.684
-1.69422
-1.70447
-1.71476
-1.72471
-1.69209
-1.69095
-1.68957
-1.68809
-1.68657
-1.68507
-1.68358
-1.68214
-1.68074
-1.6794
-1.67811
-1.67688
-1.67571
-1.67461
-1.67359
-1.67266
-1.67183
-1.67112
-1.67056
-1.67016
-1.66996
-1.66998
-1.67025
-1.6708
-1.67168
-1.67291
-1.67453
-1.67658
-1.6791
-1.68213
-1.68571
-1.68987
-1.69466
-1.7001
-1.7062
-1.71298
-1.72043
-1.72853
-1.73726
-1.74656
-1.75636
-1.76654
-1.77695
-1.78745
-1.79801
-1.80831
-1.76874
-1.76763
-1.76631
-1.76489
-1.76345
-1.76204
-1.76065
-1.75931
-1.75803
-1.7568
-1.75563
-1.75452
-1.75348
-1.75251
-1.75162
-1.75083
-1.75014
-1.74959
-1.74919
-1.74896
-1.74893
-1.74914
-1.74961
-1.75037
-1.75147
-1.75292
-1.75477
-1.75705
-1.7598
-1.76306
-1.76686
-1.77123
-1.77621
-1.78183
-1.78811
-1.79505
-1.80267
-1.81095
-1.81987
-1.82937
-1.8394
-1.84986
-1.86061
-1.8715
-1.88252
-1.89335
-1.84538
-1.84429
-1.84302
-1.84165
-1.8403
-1.83897
-1.83769
-1.83646
-1.83529
-1.83418
-1.83313
-1.83215
-1.83124
-1.83041
-1.82966
-1.82901
-1.82848
-1.82808
-1.82785
-1.82779
-1.82795
-1.82834
-1.82901
-1.82998
-1.83129
-1.83298
-1.83506
-1.83758
-1.84056
-1.84406
-1.84809
-1.85269
-1.8579
-1.86373
-1.87023
-1.87739
-1.88522
-1.89374
-1.90291
-1.91271
-1.92307
-1.93391
-1.94511
-1.95653
-1.96815
-1.97969
-1.922
-1.92092
-1.9197
-1.91839
-1.91711
-1.91588
-1.9147
-1.91358
-1.91252
-1.91153
-1.91062
-1.90977
-1.90899
-1.9083
-1.9077
-1.9072
-1.90683
-1.9066
-1.90653
-1.90665
-1.90699
-1.90758
-1.90845
-1.90963
-1.91116
-1.91307
-1.91539
-1.91815
-1.92138
-1.92513
-1.92941
-1.93426
-1.93971
-1.9458
-1.95254
-1.95996
-1.96807
-1.97687
-1.98636
-1.99652
-2.00729
-2.0186
-2.03034
-2.0424
-2.05476
-2.06712
-1.99859
-1.99752
-1.99634
-1.99509
-1.99389
-1.99274
-1.99167
-1.99066
-1.98972
-1.98886
-1.98807
-1.98736
-1.98673
-1.98618
-1.98573
-1.98539
-1.98518
-1.98512
-1.98522
-1.98553
-1.98606
-1.98685
-1.98792
-1.98932
-1.99108
-1.99321
-1.99577
-1.99878
-2.00227
-2.00626
-2.01081
-2.01593
-2.02165
-2.02801
-2.03504
-2.04275
-2.05117
-2.06031
-2.07017
-2.08074
-2.09198
-2.10383
-2.11621
-2.12899
-2.14215
-2.15544
-2.07515
-2.07409
-2.07295
-2.07175
-2.07063
-2.06957
-2.0686
-2.06771
-2.06689
-2.06615
-2.0655
-2.06493
-2.06444
-2.06404
-2.06375
-2.06357
-2.06353
-2.06364
-2.06392
-2.06441
-2.06514
-2.06613
-2.06742
-2.06904
-2.07102
-2.0734
-2.0762
-2.07946
-2.08321
-2.08748
-2.09229
-2.0977
-2.10371
-2.11037
-2.1177
-2.12574
-2.13451
-2.14403
-2.1543
-2.16533
-2.17709
-2.18954
-2.20259
-2.21614
-2.23018
-2.24445
-2.15168
-2.15063
-2.14952
-2.14838
-2.14733
-2.14637
-2.14549
-2.14471
-2.14402
-2.14341
-2.14289
-2.14245
-2.14211
-2.14187
-2.14174
-2.14172
-2.14185
-2.14214
-2.14261
-2.1433
-2.14422
-2.14543
-2.14693
-2.14878
-2.151
-2.15362
-2.15667
-2.16019
-2.16421
-2.16875
-2.17386
-2.17956
-2.18588
-2.19286
-2.20053
-2.20892
-2.21807
-2.22799
-2.23872
-2.25024
-2.26256
-2.27563
-2.28939
-2.30375
-2.31868
-2.33396
-2.22816
-2.22713
-2.22606
-2.22497
-2.22399
-2.22312
-2.22235
-2.22167
-2.22109
-2.22061
-2.22023
-2.21994
-2.21974
-2.21966
-2.21968
-2.21984
-2.22014
-2.22061
-2.22128
-2.22216
-2.2233
-2.22472
-2.22645
-2.22853
-2.23098
-2.23385
-2.23717
-2.24096
-2.24525
-2.25009
-2.25549
-2.2615
-2.26815
-2.27547
-2.28349
-2.29226
-2.30181
-2.31218
-2.32337
-2.33542
-2.34832
-2.36203
-2.37652
-2.39169
-2.40751
-2.4238
-2.3046
-2.30358
-2.30255
-2.30152
-2.30061
-2.29982
-2.29915
-2.29858
-2.29812
-2.29777
-2.29752
-2.29737
-2.29732
-2.29739
-2.29758
-2.29791
-2.29839
-2.29905
-2.29991
-2.301
-2.30234
-2.30398
-2.30594
-2.30826
-2.31096
-2.31409
-2.31767
-2.32174
-2.32632
-2.33146
-2.33718
-2.34351
-2.35049
-2.35817
-2.36657
-2.37573
-2.38571
-2.39653
-2.40822
-2.42081
-2.43429
-2.44866
-2.46386
-2.47983
-2.49652
-2.51376
-2.38098
-2.37999
-2.37899
-2.37802
-2.37719
-2.37648
-2.3759
-2.37544
-2.3751
-2.37487
-2.37475
-2.37474
-2.37484
-2.37507
-2.37543
-2.37592
-2.37659
-2.37743
-2.37849
-2.37978
-2.38135
-2.38321
-2.3854
-2.38796
-2.39092
-2.39431
-2.39816
-2.40251
-2.40739
-2.41284
-2.41888
-2.42555
-2.43288
-2.44092
-2.44971
-2.45929
-2.4697
-2.48098
-2.49318
-2.50631
-2.52038
-2.53539
-2.55129
-2.56802
-2.58553
-2.60365
-2.4573
-2.45634
-2.45539
-2.45448
-2.45371
-2.45309
-2.4526
-2.45225
-2.45202
-2.45191
-2.45192
-2.45205
-2.4523
-2.45268
-2.4532
-2.45387
-2.45472
-2.45575
-2.45701
-2.45851
-2.46029
-2.46238
-2.4648
-2.46761
-2.47082
-2.47447
-2.47861
-2.48325
-2.48843
-2.49419
-2.50056
-2.50757
-2.51526
-2.52368
-2.53286
-2.54286
-2.55371
-2.56547
-2.57817
-2.59184
-2.60648
-2.6221
-2.63866
-2.6561
-2.67435
-2.69325
-2.53356
-2.53263
-2.53172
-2.53087
-2.53018
-2.52964
-2.52924
-2.52899
-2.52887
-2.52888
-2.52901
-2.52928
-2.52968
-2.53021
-2.5309
-2.53174
-2.53277
-2.53399
-2.53545
-2.53715
-2.53915
-2.54146
-2.54413
-2.54717
-2.55064
-2.55457
-2.55898
-2.56391
-2.5694
-2.57547
-2.58217
-2.58953
-2.59758
-2.60638
-2.61596
-2.62638
-2.63767
-2.6499
-2.66309
-2.67728
-2.69247
-2.70866
-2.72582
-2.74389
-2.76278
-2.78235
-2.60973
-2.60885
-2.60799
-2.6072
-2.60658
-2.60612
-2.60582
-2.60566
-2.60565
-2.60577
-2.60603
-2.60643
-2.60697
-2.60766
-2.6085
-2.60952
-2.61072
-2.61214
-2.61379
-2.6157
-2.61791
-2.62045
-2.62334
-2.62664
-2.63036
-2.63455
-2.63924
-2.64446
-2.65025
-2.65664
-2.66367
-2.67137
-2.67979
-2.68896
-2.69893
-2.70976
-2.72149
-2.73417
-2.74783
-2.7625
-2.7782
-2.79492
-2.81261
-2.83121
-2.85063
-2.87073
-2.68583
-2.68499
-2.68419
-2.68347
-2.68291
-2.68253
-2.68231
-2.68225
-2.68234
-2.68258
-2.68296
-2.68349
-2.68417
-2.68501
-2.68601
-2.68719
-2.68857
-2.69017
-2.69202
-2.69413
-2.69655
-2.69931
-2.70243
-2.70597
-2.70994
-2.71439
-2.71935
-2.72486
-2.73095
-2.73765
-2.745
-2.75304
-2.7618
-2.77134
-2.7817
-2.79293
-2.80507
-2.81817
-2.83228
-2.8474
-2.86356
-2.88073
-2.89888
-2.91792
-2.93776
-2.95822
-2.76184
-2.76106
-2.7603
-2.75965
-2.75917
-2.75886
-2.75873
-2.75876
-2.75895
-2.7593
-2.7598
-2.76045
-2.76127
-2.76225
-2.7634
-2.76475
-2.7663
-2.76808
-2.77012
-2.77243
-2.77505
-2.77802
-2.78137
-2.78513
-2.78935
-2.79405
-2.79928
-2.80507
-2.81144
-2.81844
-2.8261
-2.83447
-2.84357
-2.85346
-2.86418
-2.87579
-2.88832
-2.90182
-2.91633
-2.93186
-2.94842
-2.96598
-2.9845
-3.0039
-3.02402
-3.04471
-2.83776
-2.83703
-2.83633
-2.83575
-2.83534
-2.83511
-2.83506
-2.83518
-2.83546
-2.83591
-2.83652
-2.8373
-2.83825
-2.83937
-2.84067
-2.84217
-2.84389
-2.84585
-2.84806
-2.85056
-2.85339
-2.85656
-2.86012
-2.86411
-2.86856
-2.87351
-2.87899
-2.88504
-2.89169
-2.89897
-2.90693
-2.9156
-2.92502
-2.93524
-2.94631
-2.95826
-2.97115
-2.98501
-2.99988
-3.01577
-3.03268
-3.05057
-3.06939
-3.08904
-3.10935
-3.13014
-2.91357
-2.91291
-2.91227
-2.91175
-2.91141
-2.91126
-2.91128
-2.91149
-2.91187
-2.91242
-2.91314
-2.91403
-2.9151
-2.91635
-2.9178
-2.91945
-2.92133
-2.92345
-2.92584
-2.92852
-2.93153
-2.9349
-2.93867
-2.94287
-2.94754
-2.95272
-2.95844
-2.96473
-2.97164
-2.97919
-2.98742
-2.99638
-3.0061
-3.01662
-3.028
-3.04027
-3.05349
-3.06767
-3.08286
-3.09906
-3.11627
-3.13443
-3.15349
-3.17331
-3.19372
-3.21451
-2.98927
-2.98869
-2.9881
-2.98765
-2.98738
-2.9873
-2.9874
-2.98769
-2.98815
-2.9888
-2.98962
-2.99063
-2.99181
-2.99319
-2.99477
-2.99657
-2.9986
-3.00088
-3.00343
-3.00628
-3.00947
-3.01303
-3.01699
-3.02139
-3.02626
-3.03165
-3.03759
-3.04411
-3.05125
-3.05905
-3.06754
-3.07675
-3.08674
-3.09755
-3.10921
-3.12176
-3.13526
-3.14973