/*--------------------------------*- C++ -*----------------------------------*\
  =========                 |
  \\      /  F ield         | OpenFOAM: The Open Source CFD Toolbox
   \\    /   O peration     | Website:  https://openfoam.org
    \\  /    A nd           | Version:  7
     \\/     M anipulation  |
\*---------------------------------------------------------------------------*/
FoamFile
{
    version     2.0;
    format      ascii;
    class       volScalarField;
    location    "0.5";
    object      p_rgh;
}
// * * * * * * * * * * * * * * * * * * * * * * * * * * * * * * * * * * * * * //

dimensions      [1 -1 -2 0 0 0 0];

internalField   nonuniform List<scalar> 
9072
(
653.613
652.24
653.715
657.633
663.112
669.14
675.224
681.115
686.738
692.091
697.215
702.167
707.01
711.805
716.608
721.471
726.438
731.549
736.838
742.332
748.054
754.024
760.256
766.764
773.559
780.654
788.065
795.814
803.941
812.51
821.545
831.083
841.209
852.019
863.577
875.874
888.758
901.818
914.308
925.096
933.259
936.486
935.778
937.181
945.691
954.981
653.737
652.046
652.983
656.405
661.368
666.992
672.812
678.554
684.114
689.468
694.635
699.657
704.588
709.479
714.383
719.349
724.42
729.634
735.025
740.621
746.448
752.526
758.872
765.503
772.434
779.68
787.261
795.204
803.545
812.336
821.644
831.524
842.06
853.348
865.461
878.402
892.026
905.902
919.202
930.593
938.972
941.257
937.945
935.099
939.137
950.422
653.098
651.627
652.509
655.403
659.762
664.86
670.28
675.75
681.148
686.422
691.57
696.619
701.607
706.577
711.574
716.643
721.823
727.152
732.662
738.383
744.34
750.556
757.051
763.844
770.954
778.4
786.206
794.404
803.033
812.147
821.817
832.113
843.112
854.901
867.538
881.007
895.13
909.439
923.064
934.567
942.745
944.304
940.348
934.955
932.205
946.059
652.098
651.007
651.984
654.592
658.48
663.107
668.128
673.295
678.479
683.616
688.691
693.714
698.713
703.721
708.778
713.922
719.19
724.617
730.234
736.072
742.155
748.509
755.154
762.113
769.406
777.058
785.094
793.549
802.462
811.887
821.894
832.557
843.945
856.129
869.139
882.922
897.26
911.648
925.206
936.517
944.269
946.155
941.546
931.198
924.274
942.358
651.018
650.375
651.516
653.95
657.488
661.731
666.395
671.268
676.225
681.199
686.166
691.126
696.099
701.11
706.194
711.383
716.713
722.215
727.92
733.856
740.052
746.53
753.315
760.429
767.896
775.741
783.992
792.685
801.858
811.563
821.865
832.832
844.525
856.99
870.229
884.152
898.502
912.76
926.067
937.109
944.548
947.273
937.034
929.59
923.336
944.262
649.961
649.787
651.105
653.408
656.669
660.588
664.935
669.531
674.264
679.066
683.907
688.784
693.708
698.699
703.786
709
714.371
719.93
725.706
731.728
738.023
744.614
751.528
758.787
766.417
774.444
782.896
791.808
801.218
811.174
821.733
832.956
844.888
857.553
870.923
884.875
899.128
913.161
926.159
936.945
944.249
947.091
940.214
930.291
925.67
947.904
648.906
649.24
650.693
652.896
655.931
659.569
663.632
667.972
672.488
677.117
681.827
686.609
691.47
696.427
701.504
706.727
712.125
717.729
723.565
729.661
736.044
742.74
749.774
757.171
764.955
773.153
781.794
790.91
800.537
810.718
821.503
832.941
845.062
857.866
871.301
885.216
899.313
913.083
925.767
936.326
943.627
946.815
945.605
932.086
929.363
953.535
647.787
648.632
650.218
652.358
655.206
658.601
662.41
666.514
670.826
675.287
679.865
684.549
689.34
694.254
699.31
704.533
709.95
715.587
721.474
727.636
734.101
740.895
748.042
755.569
763.5
771.861
780.68
789.986
799.813
810.197
821.18
832.799
845.068
857.967
871.419
885.255
899.168
912.666
925.051
935.409
942.761
946.409
946.355
942.024
938.445
962.042
646.59
647.901
649.632
651.746
654.441
657.626
661.208
665.098
669.221
673.523
677.974
682.559
687.279
692.145
697.175
702.392
707.82
713.486
719.417
725.64
732.18
739.065
746.32
753.972
762.044
770.561
779.549
789.034
799.046
809.613
820.771
832.543
844.929
857.89
871.33
885.064
898.782
912.016
924.123
934.301
941.711
945.814
946.787
948.184
952.746
970.673
645.331
647.027
648.918
651.028
653.595
656.595
659.977
663.674
667.625
671.781
676.111
680.602
685.252
690.07
695.072
700.279
705.715
711.405
717.376
723.654
730.265
737.237
744.597
752.368
760.576
769.244
778.394
788.049
798.233
808.969
820.283
832.188
844.668
857.67
871.081
884.705
898.233
911.218
923.072
933.082
940.534
945.03
946.918
949.578
957.597
978.126
644.022
646.033
648.076
650.183
652.635
655.472
658.675
662.202
665.998
670.022
674.242
678.646
683.229
688.001
692.974
698.17
703.612
709.324
715.332
721.662
728.342
735.398
742.858
750.747
759.088
767.903
777.21
787.028
797.375
808.268
819.725
831.749
844.31
857.34
870.716
884.233
897.584
910.343
921.966
931.816
939.278
944.076
946.731
950.451
961.331
984.289
642.667
644.938
647.108
649.197
651.538
654.225
657.27
660.646
664.308
668.214
672.337
676.661
681.184
685.913
690.86
696.046
701.493
707.227
713.271
719.651
726.397
733.535
741.094
749.098
757.571
766.53
775.992
785.968
796.472
807.514
819.105
831.24
843.876
856.932
870.275
883.696
896.892
909.451
920.865
930.556
937.985
942.962
946.154
950.592
963.684
988.476
641.269
643.755
646.013
648.059
650.285
652.83
655.735
658.981
662.527
666.333
670.37
674.625
679.095
683.785
688.709
693.887
699.341
705.096
711.175
717.605
724.415
731.634
739.291
747.41
756.013
765.118
774.734
784.867
795.525
806.712
818.434
830.676
843.388
856.475
869.797
883.142
896.208
908.597
919.827
929.358
936.702
941.714
945.122
949.728
964.26
989.775
639.835
642.485
644.785
646.762
648.86
651.269
654.05
657.187
660.637
664.358
668.323
672.519
676.943
681.601
686.505
691.676
697.138
702.915
709.029
715.508
722.382
729.681
737.435
745.669
754.405
763.657
773.429
783.721
794.534
805.867
817.722
830.077
842.873
856.003
869.323
882.62
895.59
907.845
918.919
928.294
935.504
940.392
943.63
947.664
962.733
986.975
638.377
641.142
643.432
645.305
647.26
649.534
652.204
655.253
658.627
662.28
666.188
670.337
674.725
679.356
684.244
689.412
694.883
700.682
706.832
713.357
720.292
727.67
735.521
743.871
752.741
762.144
772.077
782.531
793.502
804.985
816.978
829.456
842.349
855.541
868.884
882.166
895.079
907.24
918.19
927.421
934.456
939.067
941.711
944.26
958.263
977.984
636.939
639.749
641.974
643.681
645.449
647.579
650.153
653.136
656.458
660.069
663.942
668.065
672.435
677.056
681.943
687.117
692.605
698.432
704.619
711.191
718.186
725.639
733.583
742.046
751.048
760.601
770.694
781.308
792.433
804.064
816.194
828.794
841.788
855.048
868.429
881.717
894.603
906.702
917.562
926.668
933.504
937.704
939.337
939.433
947.759
959.156
321.299
321.261
321.204
321.129
321.032
320.908
320.778
320.633
320.487
320.346
320.201
320.061
319.928
319.806
319.699
319.611
319.542
319.495
319.47
319.467
319.485
319.524
319.585
319.669
319.774
319.901
320.048
320.214
320.396
320.589
320.788
320.989
321.181
321.355
321.494
321.571
321.57
321.52
321.303
321.27
321.223
321.143
321.043
320.926
320.793
320.653
320.504
320.351
320.204
320.062
319.927
319.805
319.697
319.607
319.538
319.491
319.465
319.461
319.478
319.516
319.576
319.657
319.759
319.883
320.028
320.19
320.369
320.558
320.754
320.95
321.138
321.307
321.443
321.528
321.552
321.515
321.315
321.278
321.231
321.153
321.049
320.93
320.796
320.654
320.506
320.353
320.205
320.062
319.927
319.804
319.695
319.605
319.535
319.486
319.459
319.453
319.468
319.504
319.561
319.639
319.738
319.858
319.998
320.157
320.332
320.518
320.711
320.904
321.09
321.26
321.402
321.502
321.539
321.509
321.328
321.285
321.233
321.155
321.052
320.931
320.796
320.653
320.505
320.354
320.206
320.062
319.926
319.801
319.691
319.599
319.528
319.478
319.449
319.442
319.455
319.489
319.543
319.617
319.713
319.83
319.967
320.123
320.296
320.48
320.672
320.865
321.053
321.227
321.375
321.486
321.529
321.5
321.343
321.291
321.233
321.153
321.05
320.929
320.795
320.652
320.503
320.352
320.204
320.059
319.922
319.795
319.683
319.59
319.517
319.466
319.436
319.427
319.439
319.471
319.523
319.595
319.688
319.802
319.937
320.092
320.264
320.448
320.64
320.834
321.024
321.202
321.356
321.472
321.519
321.488
321.355
321.295
321.231
321.148
321.044
320.924
320.79
320.646
320.497
320.346
320.197
320.051
319.912
319.784
319.67
319.575
319.501
319.449
319.419
319.41
319.421
319.451
319.501
319.571
319.662
319.774
319.907
320.061
320.233
320.418
320.61
320.804
320.996
321.177
321.335
321.455
321.506
321.473
321.365
321.297
321.227
321.141
321.036
320.915
320.78
320.636
320.487
320.335
320.185
320.038
319.897
319.767
319.651
319.555
319.481
319.429
319.399
319.39
319.399
319.428
319.477
319.545
319.634
319.744
319.875
320.029
320.201
320.386
320.578
320.773
320.966
321.15
321.312
321.435
321.489
321.455
321.371
321.296
321.22
321.131
321.024
320.902
320.767
320.622
320.472
320.319
320.168
320.02
319.878
319.745
319.628
319.531
319.457
319.406
319.376
319.367
319.376
319.404
319.451
319.517
319.603
319.71
319.84
319.993
320.165
320.351
320.544
320.739
320.933
321.119
321.285
321.412
321.469
321.433
321.373
321.293
321.211
321.119
321.011
320.887
320.75
320.604
320.453
320.299
320.147
319.998
319.854
319.72
319.602
319.504
319.43
319.38
319.351
319.342
319.351
319.377
319.422
319.486
319.569
319.674
319.801
319.953
320.126
320.312
320.506
320.701
320.896
321.084
321.254
321.386
321.446
321.408
321.371
321.287
321.201
321.106
320.995
320.869
320.731
320.583
320.431
320.277
320.124
319.974
319.828
319.693
319.572
319.474
319.401
319.352
319.325
319.316
319.324
319.349
319.392
319.453
319.533
319.634
319.758
319.909
320.082
320.27
320.464
320.66
320.855
321.045
321.22
321.358
321.42
321.379
321.366
321.279
321.189
321.091
320.978
320.85
320.71
320.561
320.407
320.252
320.099
319.948
319.802
319.664
319.541
319.442
319.37
319.323
319.297
319.289
319.297
319.32
319.36
319.418
319.494
319.591
319.711
319.86
320.035
320.225
320.42
320.616
320.811
321.003
321.182
321.326
321.392
321.347
321.358
321.27
321.176
321.076
320.96
320.831
320.688
320.538
320.382
320.227
320.073
319.922
319.775
319.635
319.51
319.409
319.338
319.293
319.269
319.262
319.269
319.291
319.328
319.382
319.454
319.545
319.66
319.806
319.983
320.176
320.372
320.568
320.762
320.955
321.139
321.291
321.361
321.311
321.349
321.261
321.164
321.061
320.943
320.812
320.667
320.514
320.358
320.202
320.049
319.898
319.749
319.607
319.478
319.376
319.306
319.264
319.242
319.235
319.242
319.262
319.297
319.346
319.413
319.497
319.605
319.749
319.928
320.125
320.323
320.517
320.71
320.903
321.092
321.254
321.328
321.271
321.336
321.252
321.152
321.047
320.927
320.794
320.648
320.493
320.335
320.179
320.026
319.875
319.726
319.58
319.448
319.344
319.275
319.235
319.216
319.21
319.216
319.234
319.266
319.311
319.372
319.449
319.549
319.688
319.871
320.073
320.272
320.464
320.655
320.847
321.041
321.214
321.294
321.228
321.322
321.244
321.142
321.035
320.914
320.779
320.63
320.473
320.314
320.158
320.006
319.856
319.705
319.557
319.419
319.312
319.244
319.208
319.191
319.186
319.191
319.207
319.236
319.278
319.333
319.401
319.491
319.624
319.814
320.022
320.221
320.41
320.596
320.784
320.982
321.169
321.259
321.184
321.306
321.238
321.135
321.027
320.904
320.767
320.616
320.457
320.295
320.14
319.99
319.84
319.689
319.536
319.393
319.282
319.216
319.184
319.169
319.164
319.168
319.183
319.21
319.247
319.296
319.354
319.431
319.556
319.749
319.964
320.167
320.353
320.532
320.71
320.905
321.107
321.217
321.143
634.72
637.378
639.457
640.761
642.127
644.016
646.473
649.401
652.689
656.273
660.129
664.247
668.624
673.263
678.178
683.394
688.938
694.839
701.112
707.778
714.881
722.462
730.557
739.197
748.403
758.183
768.517
779.366
790.712
802.551
814.875
827.65
840.787
854.139
867.568
880.874
893.739
905.78
916.552
925.529
932.118
935.7
935.648
931.296
921.849
894.086
631.969
632.463
634.123
635.046
636.213
638.077
640.717
643.821
647.166
650.709
654.482
658.511
662.807
667.383
672.266
677.494
683.113
689.156
695.615
702.487
709.816
717.652
726.036
734.996
744.556
754.723
765.446
776.64
788.283
800.395
812.984
826.034
839.433
852.971
866.556
880.036
893.057
905.245
916.206
925.461
932.471
936.651
937.364
933.805
925.476
915.761
398.149
352.926
355.626
367.722
388.406
417.012
449.89
483.619
514.803
543.291
569.618
593.723
615.197
633.895
649.86
663.34
674.573
683.802
691.001
697.605
704.774
712.566
721.03
730.203
740.129
750.821
762.125
773.782
785.773
798.182
811.075
824.491
838.298
852.141
866.046
879.963
893.409
906.024
917.514
927.505
935.593
941.396
944.661
945.406
944.413
943.93
0.55687
0.811931
0.834793
0.788552
0.789133
5.6504
17.7733
33.5641
52.0199
73.2104
97.7789
126.134
158.227
193.877
233.12
276.222
323.53
375.297
431.26
480.299
527.218
573.883
619.383
662.355
701.023
733.321
756.46
770.428
782.862
795.713
809.047
822.96
837.39
851.572
865.913
880.632
894.841
908.145
920.426
931.441
940.927
948.652
954.597
959.067
962.821
966.86
0.777946
0.786959
0.797156
0.803764
0.811716
0.811691
0.806947
0.802711
0.795254
0.785569
0.776409
0.769407
0.764964
0.762992
0.763357
0.766036
0.770686
0.774232
0.789586
13.3793
33.9942
60.7524
96.1197
143.182
206.46
292.957
407.565
533.777
646.258
741.781
806.116
821.359
837.34
851.332
865.708
881.691
897.076
911.321
924.645
936.896
947.916
957.533
965.863
973.307
980.585
988.774
0.763404
0.768258
0.779693
0.787938
0.795507
0.805072
0.81562
0.824206
0.830116
0.833992
0.836626
0.838556
0.840108
0.841505
0.842931
0.844587
0.84676
0.849935
0.855504
0.846108
0.829335
0.82318
0.826952
0.834328
0.842374
0.853874
0.892202
10.8251
52.8924
128.41
263.509
497.753
767.512
853.715
866.587
884.343
900.291
915.014
929.436
943.177
955.966
967.445
977.831
987.62
997.433
1008.26
0.762143
0.76302
0.768564
0.775044
0.781076
0.787675
0.794357
0.799975
0.804098
0.806936
0.808943
0.810551
0.812089
0.813789
0.815829
0.818389
0.82178
0.826726
0.834297
0.844429
0.847087
0.84748
0.848431
0.850386
0.854436
0.864458
0.887553
0.911621
0.893834
0.855947
0.86009
14.4042
76.0997
196.536
459.646
855.409
910.053
921.943
935.394
949.525
964.068
977.474
989.765
1001.49
1012.96
1025
0.755111
0.756248
0.760236
0.765483
0.770707
0.775941
0.780953
0.785263
0.788618
0.79111
0.793028
0.794687
0.796349
0.79821
0.800417
0.803086
0.806379
0.810603
0.816089
0.822142
0.825778
0.828565
0.831853
0.836115
0.841925
0.850411
0.860776
0.862068
0.858183
0.864432
0.892759
0.904991
0.829262
0.724042
7.47404
144.077
445.478
750.402
953.27
961.502
974.462
987.55
1000.77
1014.24
1027.03
1039.67
0.745378
0.747317
0.751354
0.756263
0.761062
0.765688
0.770027
0.773852
0.777038
0.779641
0.781834
0.783824
0.785795
0.787898
0.790249
0.792932
0.796021
0.799598
0.803628
0.807612
0.811017
0.814446
0.81844
0.823218
0.828973
0.835917
0.843279
0.847216
0.848066
0.852137
0.861045
0.859438
0.853231
0.866536
0.866146
0.758998
5.18982
62.2145
244.227
600.202
963.347
1008.09
1015.89
1027.76
1040.05
1052.5
0.735176
0.737846
0.742074
0.746713
0.751081
0.755183
0.758995
0.76242
0.765411
0.768014
0.770336
0.772512
0.77467
0.776919
0.779346
0.782017
0.784981
0.78826
0.791794
0.795359
0.798812
0.802398
0.806369
0.810853
0.815906
0.821499
0.827183
0.831355
0.833468
0.835493
0.838012
0.836374
0.834158
0.841739
0.85768
0.875067
0.85017
0.7032
0.413502
23.6029
181.642
480.815
832.245
1059.96
1062.89
1068.77
0.724381
0.727816
0.732195
0.736589
0.740571
0.744229
0.747607
0.750687
0.753468
0.75599
0.758328
0.76057
0.762805
0.76511
0.767548
0.770169
0.773008
0.776081
0.779354
0.782724
0.786128
0.789661
0.793446
0.79754
0.801931
0.806507
0.810924
0.814403
0.816633
0.818277
0.819501
0.818372
0.814975
0.81328
0.815111
0.81959
0.82186
0.823893
0.82681
0.750024
0.456712
1.59778
72.2509
306.037
643.171
913.959
0.71333
0.717224
0.721626
0.725776
0.729434
0.732746
0.735798
0.738617
0.741227
0.743663
0.74598
0.748237
0.750494
0.752808
0.755224
0.757776
0.760491
0.763381
0.76643
0.769592
0.772839
0.776205
0.779735
0.783434
0.78725
0.79105
0.794574
0.797405
0.799365
0.800636
0.801146
0.800015
0.797046
0.793479
0.789117
0.781996
0.77246
0.765999
0.772432
0.788318
0.776403
0.766243
0.62793
0.245663
17.0016
101.423
0.701979
0.706095
0.710363
0.714238
0.717615
0.720658
0.723473
0.726105
0.728586
0.730951
0.733238
0.735486
0.737738
0.740035
0.74241
0.74489
0.747492
0.750226
0.753087
0.756052
0.759105
0.76225
0.76549
0.768796
0.7721
0.775275
0.778125
0.780394
0.781928
0.782705
0.782585
0.781167
0.778351
0.774459
0.76901
0.760621
0.748585
0.733892
0.721441
0.716232
0.709239
0.726235
0.763241
0.752159
0.656121
0.379391
0.690284
0.694411
0.698428
0.702005
0.705132
0.707967
0.71061
0.71311
0.715499
0.717805
0.720057
0.722283
0.724513
0.726777
0.729101
0.731506
0.734005
0.736605
0.739305
0.742088
0.74494
0.747847
0.750788
0.753719
0.756565
0.759214
0.761509
0.763269
0.764348
0.764647
0.76402
0.762238
0.759195
0.754918
0.749113
0.741131
0.730448
0.717088
0.702349
0.687067
0.668486
0.659623
0.663979
0.665601
0.682391
0.675557
0.678201
0.682166
0.685869
0.689148
0.692055
0.694729
0.697248
0.699655
0.701977
0.704235
0.706451
0.708647
0.710844
0.713066
0.715334
0.717662
0.720063
0.72254
0.72509
0.727701
0.730351
0.733018
0.735666
0.738246
0.740684
0.742877
0.744698
0.746001
0.746653
0.746532
0.745497
0.743379
0.740058
0.735459
0.729387
0.721537
0.711701
0.699954
0.686706
0.671892
0.654401
0.637827
0.621181
0.600709
0.588156
0.56049
0.665705
0.669384
0.672757
0.675759
0.678478
0.681022
0.683449
0.685789
0.68806
0.690277
0.692458
0.694619
0.696778
0.698954
0.701161
0.703414
0.705719
0.708077
0.710484
0.712923
0.715373
0.717802
0.720171
0.722426
0.724495
0.726289
0.727696
0.728594
0.728861
0.728376
0.727008
0.724612
0.721069
0.716279
0.710097
0.702346
0.692927
0.681904
0.669499
0.655777
0.64046
0.624493
0.606889
0.58563
0.564003
0.538468
0.652806
0.656131
0.659189
0.661945
0.664502
0.666939
0.66929
0.671574
0.673801
0.675981
0.678126
0.680249
0.682366
0.684491
0.686637
0.688812
0.691022
0.693263
0.695527
0.697798
0.70005
0.702249
0.704352
0.706306
0.708043
0.709481
0.710524
0.711063
0.710989
0.710187
0.70854
0.705921
0.702219
0.697335
0.69116
0.683577
0.674519
0.664008
0.652164
0.639093
0.62482
0.609764
0.593653
0.57565
0.556492
0.536398
0.639554
0.642503
0.645277
0.647822
0.650238
0.652579
0.654861
0.65709
0.659271
0.66141
0.663515
0.665597
0.667666
0.669735
0.671814
0.673908
0.676019
0.678142
0.680264
0.682368
0.684427
0.686406
0.68826
0.689937
0.691372
0.692492
0.693209
0.69343
0.693054
0.691977
0.690093
0.687292
0.683477
0.678556
0.672446
0.665067
0.656368
0.646351
0.635081
0.622654
0.609169
0.59486
0.579754
0.563698
0.54692
0.529839
0.626022
0.628608
0.631135
0.6335
0.635793
0.638045
0.640257
0.642427
0.644556
0.646647
0.648704
0.650735
0.652748
0.654753
0.656757
0.658763
0.660769
0.662769
0.664747
0.666686
0.668557
0.670324
0.671945
0.673365
0.674526
0.675358
0.675785
0.675721
0.675076
0.673758
0.67167
0.668718
0.664816
0.659888
0.653866
0.646693
0.638332
0.628778
0.618079
0.606322
0.593626
0.580162
0.566055
0.551398
0.536288
0.52128
0.612287
0.614547
0.61686
0.619073
0.621256
0.623423
0.625564
0.627671
0.62974
0.631774
0.633773
0.635744
0.637692
0.639623
0.641542
0.643451
0.645344
0.647213
0.649043
0.650815
0.652499
0.654063
0.655461
0.656642
0.65755
0.65812
0.658283
0.657961
0.657075
0.65554
0.653272
0.650188
0.646216
0.64129
0.635358
0.628378
0.620322
0.611189
0.601017
0.589893
0.577944
0.565331
0.552225
0.538799
0.525078
0.511644
0.598415
0.600398
0.602528
0.604611
0.606697
0.608782
0.61085
0.612888
0.614892
0.61686
0.618793
0.620694
0.622567
0.624415
0.626241
0.628042
0.629813
0.631545
0.633221
0.634823
0.636321
0.637683
0.638865
0.639819
0.64049
0.640817
0.640737
0.640179
0.639072
0.637338
0.634905
0.6317
0.627661
0.622734
0.616878
0.610063
0.602273
0.59351
0.583811
0.573254
0.561968
0.550118
0.537898
0.525505
0.512917
0.500674
0.584461
0.586215
0.588188
0.590159
0.592155
0.594161
0.596154
0.59812
0.600053
0.60195
0.603809
0.605633
0.607423
0.60918
0.610904
0.612591
0.614235
0.615823
0.617341
0.618769
0.620079
0.62124
0.62221
0.622943
0.623387
0.623485
0.623176
0.622398
0.621084
0.619165
0.616575
0.613252
0.609142
0.6042
0.598395
0.591708
0.584133
0.575676
0.566374
0.556302
0.545581
0.534372
0.522881
0.511307
0.499606
0.488277
0.570458
0.572029
0.573866
0.575739
0.57765
0.579578
0.581495
0.583386
0.585244
0.587063
0.588843
0.590583
0.592283
0.593943
0.59556
0.597129
0.59864
0.600083
0.60144
0.602693
0.603814
0.604773
0.605532
0.606046
0.606268
0.606145
0.605618
0.60463
0.60312
0.601025
0.598284
0.594843
0.590654
0.58568
0.579897
0.573295
0.565873
0.557649
0.548656
0.538965
0.528692
0.517992
0.507068
0.496118
0.48509
0.474457
0.556428
0.557855
0.559574
0.561359
0.563189
0.565037
0.566875
0.568688
0.570466
0.572202
0.573896
0.575547
0.577152
0.57871
0.580216
0.581663
0.583041
0.584337
0.585534
0.586611
0.587544
0.588302
0.58885
0.589147
0.589149
0.588806
0.588066
0.586873
0.585173
0.582906
0.580017
0.576456
0.572181
0.567158
0.56137
0.554812
0.547489
0.539419
0.530642
0.521227
0.51128
0.500947
0.490428
0.479917
0.469364
0.459217
0.542382
0.543699
0.545315
0.547018
0.548769
0.550535
0.552291
0.55402
0.555712
0.557361
0.558963
0.560518
0.562023
0.563474
0.564866
0.566189
0.567432
0.568582
0.569619
0.570524
0.57127
0.57183
0.572169
0.57225
0.572032
0.571469
0.570513
0.569116
0.567224
0.564785
0.561745
0.558058
0.553684
0.548597
0.54278
0.536227
0.52895
0.520969
0.512324
0.503081
0.493341
0.483241
0.472969
0.462715
0.452441
0.442564
0.528326
0.529562
0.531088
0.532715
0.534386
0.536068
0.537738
0.539377
0.540977
0.542531
0.544036
0.545489
0.546887
0.548227
0.5495
0.550697
0.551805
0.552808
0.553687
0.554421
0.554985
0.555349
0.555482
0.555349
0.554911
0.554126
0.552952
0.551344
0.549255
0.546633
0.543431
0.539606
0.53512
0.529946
0.524069
0.517487
0.510206
0.502248
0.493654
0.484488
0.474843
0.464845
0.454671
0.444503
0.434317
0.424505
0.514267
0.515442
0.51689
0.518446
0.520038
0.521634
0.523211
0.524756
0.526257
0.52771
0.529109
0.530454
0.53174
0.532963
0.534113
0.53518
0.53615
0.537006
0.537728
0.538293
0.538677
0.538849
0.538779
0.538433
0.537776
0.536768
0.535371
0.533545
0.531247
0.52843
0.525049
0.521065
0.516444
0.511157
0.505187
0.498529
0.491192
0.483194
0.474572
0.465387
0.455723
0.445698
0.435475
0.425227
0.41494
0.404986
0.500208
0.501341
0.502721
0.504209
0.505722
0.507229
0.508712
0.510156
0.511552
0.512896
0.514185
0.515414
0.516582
0.517681
0.518702
0.519635
0.520463
0.52117
0.521733
0.522131
0.522336
0.522319
0.522048
0.521492
0.520616
0.519384
0.517762
0.515712
0.513193
0.510165
0.506587
0.502421
0.497633
0.492198
0.486095
0.479317
0.471868
0.463762
0.455032
0.445731
0.435938
0.425757
0.415341
0.404849
0.394281
0.383985
0.486155
0.487259
0.48858
0.490006
0.49144
0.492857
0.49424
0.495579
0.496865
0.498095
0.499266
0.500374
0.501416
0.502385
0.503272
0.504065
0.504748
0.505301
0.505704
0.505932
0.505958
0.505752
0.505282
0.504518
0.503425
0.501969
0.500118
0.497837
0.495088
0.491833
0.488037
0.483664
0.478683
0.473063
0.466785
0.459838
0.452221
0.443941
0.435025
0.425518
0.415488
0.405031
0.394284
0.383395
0.372373
0.361543
0.472114
0.4732
0.47447
0.475835
0.477191
0.478517
0.479799
0.481029
0.482201
0.483312
0.484359
0.48534
0.48625
0.487084
0.48783
0.488477
0.489009
0.489405
0.489643
0.489699
0.489543
0.489147
0.488478
0.487505
0.486194
0.484514
0.482432
0.479914
0.476925
0.473433
0.469402
0.464799
0.459593
0.453756
0.447264
0.440103
0.432264
0.423749
0.414575
0.40478
0.39442
0.38358
0.372382
0.360962
0.349335
0.337802
0.458091
0.459166
0.460391
0.461698
0.462977
0.464211
0.46539
0.466509
0.467564
0.468552
0.469471
0.47032
0.471094
0.471786
0.472386
0.472882
0.473256
0.473489
0.473558
0.473437
0.473097
0.472507
0.471635
0.470452
0.468922
0.467014
0.464697
0.461938
0.458703
0.454961
0.45068
0.445829
0.440375
0.434289
0.427547
0.420129
0.412021
0.403216
0.393723
0.383569
0.372801
0.36149
0.349742
0.337681
0.32533
0.312965
0.444094
0.44516
0.446345
0.447595
0.448798
0.44994
0.451017
0.452023
0.452959
0.453821
0.45461
0.455323
0.455955
0.456501
0.45695
0.457289
0.457501
0.457565
0.457459
0.457156
0.456625
0.455837
0.45476
0.453362
0.451609
0.449469
0.446912
0.443906
0.440418
0.436419
0.431876
0.426757
0.421033
0.414671
0.407647
0.399935
0.391515
0.382373
0.37251
0.361942
0.350703
0.33885
0.326478
0.313696
0.300533
0.28724
0.430128
0.431186
0.432333
0.433527
0.434655
0.435707
0.43668
0.437575
0.438391
0.439126
0.439782
0.440355
0.440843
0.441239
0.441532
0.441709
0.441754
0.441645
0.441358
0.440867
0.440141
0.439149
0.437859
0.43624
0.434259
0.431882
0.42908
0.42582
0.422072
0.417805
0.412987
0.407586
0.401571
0.394911
0.387576
0.379538
0.37077
0.361253
0.350977
0.339948
0.328189
0.315744
0.302694
0.289138
0.275106
0.260829
0.416199
0.417247
0.418357
0.419496
0.42055
0.421512
0.422384
0.423168
0.423863
0.424471
0.424993
0.425425
0.425766
0.426008
0.426143
0.426155
0.426027
0.42574
0.425267
0.424582
0.423654
0.422451
0.420944
0.419098
0.416881
0.414261
0.411207
0.407687
0.403669
0.399124
0.394018
0.38832
0.381998
0.375018
0.367348
0.358956
0.34981
0.339883
0.329159
0.317634
0.305319
0.292248
0.278488
0.264126
0.249198
0.233914
0.402312
0.403347
0.40442
0.405502
0.406483
0.407358
0.40813
0.408804
0.409381
0.409862
0.410249
0.41054
0.410733
0.41082
0.410792
0.410635
0.410333
0.409862
0.409198
0.408314
0.407178
0.40576
0.404028
0.40195
0.399491
0.396621
0.393308
0.389518
0.385222
0.380387
0.374981
0.368971
0.362325
0.355007
0.346981
0.338211
0.328662
0.3183
0.307101
0.295052
0.282157
0.268441
0.253958
0.238784
0.222962
0.20668
0.388473
0.389491
0.390525
0.391551
0.39246
0.393248
0.393923
0.394488
0.394948
0.395304
0.395556
0.395706
0.395749
0.395681
0.395489
0.395162
0.394681
0.394023
0.393165
0.392077
0.390729
0.389091
0.38713
0.384814
0.382108
0.378982
0.375401
0.371335
0.36675
0.361614
0.355896
0.349562
0.342578
0.334905
0.326505
0.317338
0.307365
0.296547
0.284854
0.272266
0.258781
0.244416
0.229213
0.213242
0.19655
0.179312
0.374688
0.375683
0.376677
0.377645
0.378482
0.379186
0.379766
0.380225
0.380569
0.380801
0.380921
0.38093
0.380825
0.3806
0.380245
0.379745
0.379083
0.378237
0.377181
0.375887
0.374324
0.372461
0.370268
0.36771
0.364753
0.361364
0.35751
0.353158
0.348276
0.342832
0.336793
0.330124
0.32279
0.314749
0.305962
0.296384
0.285973
0.274687
0.26249
0.24936
0.235286
0.220281
0.204381
0.187648
0.17014
0.152016
0.360965
0.36193
0.362881
0.36379
0.364556
0.365178
0.365663
0.366019
0.36625
0.36636
0.36635
0.36622
0.365968
0.365587
0.365068
0.364396
0.363552
0.362515
0.36126
0.359758
0.357979
0.355892
0.353464
0.350661
0.347449
0.343793
0.339661
0.33502
0.329836
0.324077
0.31771
0.310699
0.303005
0.294589
0.285406
0.27541
0.264555
0.252796
0.240097
0.226429
0.211782
0.196163
0.179605
0.162169
0.143922
0.125015
0.347309
0.348238
0.349145
0.349992
0.350687
0.351227
0.351621
0.351876
0.351997
0.351988
0.35185
0.351583
0.351186
0.35065
0.349968
0.349123
0.348099
0.346872
0.345418
0.34371
0.341715
0.339402
0.336739
0.333691
0.330222
0.326299
0.321888
0.316954
0.311467
0.305391
0.298692
0.291335
0.28328
0.274485
0.264903
0.254488
0.243191
0.230966
0.217775
0.203589
0.188396
0.172203
0.155043
0.136979
0.118088
0.0985179
0.333727
0.334614
0.335473
0.336258
0.336881
0.337341
0.337646
0.337802
0.337816
0.337691
0.337428
0.337029
0.336488
0.335801
0.334958
0.333943
0.332739
0.331324
0.329673
0.32776
0.32555
0.323014
0.320119
0.316826
0.313103
0.308913
0.304223
0.299
0.29321
0.286818
0.27979
0.272089
0.263675
0.254503
0.244528
0.2337
0.221971
0.209295
0.195633
0.180957
0.165258
0.148545
0.130854
0.11225
0.0928274
0.0727357
0.320227
0.321066
0.321873
0.322593
0.323145
0.323527
0.323745
0.323806
0.323716
0.323479
0.323095
0.322566
0.321886
0.32105
0.320048
0.318866
0.317486
0.315885
0.314041
0.311926
0.309506
0.306751
0.303626
0.300094
0.29612
0.291669
0.286706
0.281199
0.275111
0.26841
0.261058
0.253021
0.244255
0.234717
0.224359
0.213133
0.20099
0.187886
0.173782
0.158656
0.142499
0.125328
0.107182
0.0881353
0.0683021
0.0478401
0.306815
0.307599
0.308353
0.309006
0.309488
0.309792
0.309926
0.309895
0.309705
0.309359
0.308859
0.308204
0.307388
0.306408
0.305252
0.303907
0.302355
0.300573
0.298541
0.296228
0.293603
0.290635
0.287287
0.283522
0.279306
0.274602
0.269374
0.26359
0.257215
0.250214
0.242552
0.23419
0.225087
0.215198
0.204475
0.192871
0.180339
0.166836
0.152329
0.136797
0.120239
0.102674
0.0841527
0.0647598
0.044633
0.0239435
0.293497
0.294221
0.29492
0.295506
0.295916
0.296145
0.296197
0.296078
0.295791
0.295341
0.294729
0.293952
0.293007
0.291887
0.290583
0.289081
0.287361
0.285406
0.283192
0.280689
0.277867
0.274693
0.27113
0.267142
0.262692
0.257745
0.252264
0.246216
0.239568
0.232283
0.224325
0.215656
0.206234
0.196013
0.184948
0.172994
0.160104
0.14624
0.131371
0.115481
0.0985754
0.0806823
0.0618607
0.0422123
0.0218997
0.00111049
0.280281
0.28094
0.281581
0.282099
0.28244
0.282595
0.282568
0.282364
0.281985
0.281435
0.280715
0.279822
0.278753
0.277499
0.276053
0.2744
0.272521
0.270399
0.268012
0.265328
0.262318
0.258948
0.25518
0.250979
0.246309
0.241131
0.235413
0.229119
0.222214
0.214663
0.206429
0.197474
0.187754
0.177228
0.16585
0.153576
0.140364
0.126177
0.110988
0.0947875
0.0775856
0.0594211
0.0403652
0.0205375
0.000126702
-0.0206598
0.267173
0.267763
0.268346
0.268795
0.269067
0.26915
0.269048
0.268762
0.268295
0.267649
0.266827
0.265823
0.264635
0.263254
0.261673
0.259877
0.257848
0.25557
0.253018
0.250163
0.246975
0.243421
0.239461
0.235062
0.230186
0.224796
0.218858
0.212336
0.205195
0.197399
0.188911
0.179693
0.169704
0.158901
0.147242
0.134683
0.121185
0.106713
0.0912453
0.0747762
0.0573236
0.0389354
0.0196956
-0.000257162
-0.0207077
-0.041427
0.25418
0.254698
0.255221
0.255602
0.255806
0.25582
0.255644
0.25528
0.254729
0.253993
0.253073
0.251965
0.250665
0.249165
0.247457
0.245526
0.243357
0.240933
0.238227
0.235213
0.23186
0.228134
0.223998
0.219416
0.214352
0.208768
0.20263
0.195902
0.188546
0.180529
0.171814
0.162362
0.152134
0.141087
0.129179
0.11637
0.102621
0.0879012
0.0721912
0.0554908
0.0378234
0.0192451
-0.000147183
-0.0201954
-0.0406585
-0.0612862
0.241306
0.241751
0.242216
0.242529
0.242665
0.242612
0.242366
0.241927
0.241297
0.240477
0.239464
0.23826