/*--------------------------------*- C++ -*----------------------------------*\
  =========                 |
  \\      /  F ield         | OpenFOAM: The Open Source CFD Toolbox
   \\    /   O peration     | Website:  https://openfoam.org
    \\  /    A nd           | Version:  7
     \\/     M anipulation  |
\*---------------------------------------------------------------------------*/
FoamFile
{
    version     2.0;
    format      ascii;
    class       surfaceScalarField;
    location    "0.5";
    object      phi;
}
// * * * * * * * * * * * * * * * * * * * * * * * * * * * * * * * * * * * * * //

dimensions      [0 3 -1 0 0 0 0];

internalField   nonuniform List<scalar> 
17936
(
-1.70226e-06
1.70226e-06
-2.78848e-06
1.08621e-06
-2.87627e-06
8.77946e-08
-2.34726e-06
-5.29009e-07
-1.53347e-06
-8.13799e-07
-5.85281e-07
-9.48184e-07
4.0831e-07
-9.93592e-07
1.4028e-06
-9.94485e-07
2.37153e-06
-9.68735e-07
3.3002e-06
-9.28668e-07
4.18172e-06
-8.81522e-07
5.0133e-06
-8.3158e-07
5.79475e-06
-7.81451e-07
6.52742e-06
-7.32669e-07
7.21348e-06
-6.86055e-07
7.85544e-06
-6.41968e-07
8.45589e-06
-6.00447e-07
9.0172e-06
-5.61307e-07
9.54139e-06
-5.24189e-07
1.003e-05
-4.886e-07
1.04839e-05
-4.53914e-07
1.09033e-05
-4.19378e-07
1.12874e-05
-3.841e-07
1.16344e-05
-3.47028e-07
1.19413e-05
-3.0693e-07
1.22037e-05
-2.62337e-07
1.24151e-05
-2.1139e-07
1.25666e-05
-1.51577e-07
1.26443e-05
-7.76163e-08
1.26234e-05
2.08822e-08
1.24788e-05
1.44582e-07
1.21898e-05
2.88946e-07
1.17272e-05
4.62661e-07
1.10525e-05
6.74732e-07
1.01199e-05
9.32586e-07
8.88038e-06
1.23948e-06
7.29049e-06
1.58989e-06
5.32928e-06
1.96121e-06
3.01909e-06
2.3102e-06
4.45594e-07
2.57349e-06
-2.38636e-06
2.83196e-06
-5.37489e-06
2.98853e-06
-7.63245e-06
2.25756e-06
-7.80757e-06
1.75113e-07
-5.02249e-06
-2.78508e-06
-5.02249e-06
-1.56826e-06
3.27052e-06
-2.00121e-06
1.51916e-06
-1.82967e-06
-8.37422e-08
-1.29547e-06
-1.06321e-06
-5.36353e-07
-1.57292e-06
3.4152e-07
-1.82605e-06
1.27297e-06
-1.92505e-06
2.2146e-06
-1.93611e-06
3.14097e-06
-1.89511e-06
4.0371e-06
-1.82479e-06
4.89467e-06
-1.73909e-06
5.70967e-06
-1.64658e-06
6.4807e-06
-1.55249e-06
7.208e-06
-1.45996e-06
7.89268e-06
-1.37073e-06
8.53632e-06
-1.28561e-06
9.14065e-06
-1.20478e-06
9.7073e-06
-1.12795e-06
1.02376e-05
-1.05451e-06
1.07325e-05
-9.83535e-07
1.11925e-05
-9.1387e-07
1.16172e-05
-8.44073e-07
1.20055e-05
-7.72429e-07
1.23554e-05
-6.96905e-07
1.26636e-05
-6.15101e-07
1.29254e-05
-5.24177e-07
1.31347e-05
-4.20665e-07
1.32833e-05
-3.00228e-07
1.33624e-05
-1.56704e-07
1.33645e-05
1.88314e-08
1.32752e-05
2.33864e-07
1.30698e-05
4.94342e-07
1.27215e-05
8.11001e-07
1.21981e-05
1.19805e-06
1.14606e-05
1.67012e-06
1.04616e-05
2.23852e-06
9.14744e-06
2.90402e-06
7.46585e-06
3.64279e-06
5.38329e-06
4.39276e-06
2.91482e-06
5.04196e-06
2.00886e-07
5.54589e-06
-2.48202e-06
5.67143e-06
-4.46409e-06
4.23963e-06
-5.32324e-06
1.03427e-06
-4.32271e-06
-3.78561e-06
-9.3452e-06
-1.17727e-06
4.44779e-06
-1.32793e-06
1.66982e-06
-1.06738e-06
-3.44287e-07
-5.38638e-07
-1.59195e-06
1.76346e-07
-2.28791e-06
9.97801e-07
-2.64751e-06
1.87145e-06
-2.7987e-06
2.75968e-06
-2.82434e-06
3.6389e-06
-2.77433e-06
4.49458e-06
-2.68048e-06
5.3182e-06
-2.56271e-06
6.10513e-06
-2.4335e-06
6.85323e-06
-2.30059e-06
7.56194e-06
-2.16867e-06
8.23163e-06
-2.04042e-06
8.86316e-06
-1.91715e-06
9.45761e-06
-1.79923e-06
1.0016e-05
-1.68637e-06
1.05393e-05
-1.57774e-06
1.10278e-05
-1.47209e-06
1.14817e-05
-1.36777e-06
1.19004e-05
-1.26273e-06
1.22824e-05
-1.1545e-06
1.26257e-05
-1.04013e-06
1.29267e-05
-9.16144e-07
1.3181e-05
-7.78434e-07
1.33824e-05
-6.22098e-07
1.35234e-05
-4.412e-07
1.35949e-05
-2.28267e-07
1.35876e-05
2.62039e-08
1.34886e-05
3.32816e-07
1.32803e-05
7.02659e-07
1.29417e-05
1.14962e-06
1.2449e-05
1.69069e-06
1.17755e-05
2.34365e-06
1.08911e-05
3.12293e-06
9.76352e-06
4.03159e-06
8.36068e-06
5.04563e-06
6.65916e-06
6.09428e-06
4.66557e-06
7.03555e-06
2.48842e-06
7.72304e-06
3.65376e-07
7.79448e-06
-1.49705e-06
6.10205e-06
-2.8082e-06
2.34542e-06
-2.9696e-06
-3.62422e-06
-1.23148e-05
-7.79945e-07
5.22774e-06
-7.63528e-07
1.6534e-06
-4.37927e-07
-6.69888e-07
9.64315e-08
-2.12631e-06
7.81021e-07
-2.9725e-06
1.55761e-06
-3.42409e-06
2.38164e-06
-3.62273e-06
3.22152e-06
-3.66421e-06
4.05642e-06
-3.60923e-06
4.87292e-06
-3.49698e-06
5.66266e-06
-3.35246e-06
6.42073e-06
-3.19157e-06
7.14447e-06
-3.02433e-06
7.8327e-06
-2.8569e-06
8.48515e-06
-2.69287e-06
9.10209e-06
-2.53409e-06
9.68404e-06
-2.38118e-06
1.02315e-05
-2.23387e-06
1.0745e-05
-2.0912e-06
1.12246e-05
-1.95164e-06
1.16699e-05
-1.81312e-06
1.20802e-05
-1.67304e-06
1.2454e-05
-1.52823e-06
1.27887e-05
-1.3749e-06
1.30811e-05
-1.20857e-06
1.33267e-05
-1.024e-06
1.35196e-05
-8.14967e-07
1.36525e-05
-5.74132e-07
1.37169e-05
-2.92694e-07
1.37032e-05
3.99779e-08
1.35996e-05
4.36364e-07
1.33919e-05
9.10346e-07
1.30636e-05
1.47798e-06
1.25967e-05
2.15757e-06
1.19728e-05
2.96754e-06
1.11736e-05
3.92213e-06
1.01822e-05
5.02297e-06
8.98461e-06
6.24322e-06
7.5736e-06
7.50529e-06
5.95927e-06
8.64988e-06
4.22428e-06
9.45803e-06
2.53229e-06
9.48646e-06
8.625e-07
7.77184e-06
-6.29249e-07
3.83717e-06
-1.42558e-06
-2.82789e-06
-1.37404e-05
-3.98992e-07
5.62673e-06
-2.65191e-07
1.5196e-06
1.12743e-07
-1.04782e-06
6.57361e-07
-2.67092e-06
1.32253e-06
-3.63767e-06
2.06326e-06
-4.16482e-06
2.84465e-06
-4.40412e-06
3.64107e-06
-4.46064e-06
4.4349e-06
-4.40306e-06
5.21421e-06
-4.27629e-06
5.97117e-06
-4.10941e-06
6.70078e-06
-3.92119e-06
7.40006e-06
-3.72361e-06
8.06733e-06
-3.52417e-06
8.7018e-06
-3.32735e-06
9.30323e-06
-3.13552e-06
9.87162e-06
-2.94958e-06
1.04071e-05
-2.76934e-06
1.09096e-05
-2.59375e-06
1.1379e-05
-2.42106e-06
1.18148e-05
-2.24883e-06
1.22157e-05
-2.07399e-06
1.25802e-05
-1.89273e-06
1.29058e-05
-1.70049e-06
1.31891e-05
-1.49189e-06
1.34257e-05
-1.26062e-06
1.36101e-05
-9.99297e-07
1.37353e-05
-6.99334e-07
1.37933e-05
-3.50717e-07
1.3775e-05
5.83093e-08
1.36699e-05
5.41468e-07
1.3466e-05
1.11417e-06
1.31504e-05
1.79357e-06
1.27099e-05
2.59814e-06
1.2132e-05
3.54543e-06
1.14065e-05
4.64759e-06
1.05267e-05
5.90283e-06
9.49e-06
7.27989e-06
8.29997e-06
8.69531e-06
6.96997e-06
9.97988e-06
5.55842e-06
1.08696e-05
4.15423e-06
1.08907e-05
2.69909e-06
9.22699e-06
1.21286e-06
5.3234e-06
1.19102e-07
-1.73413e-06
-1.36213e-05
-5.69627e-08
5.68369e-06
1.7382e-07
1.28881e-06
6.00658e-07
-1.47466e-06
1.16088e-06
-3.23115e-06
1.81427e-06
-4.29106e-06
2.52656e-06
-4.87711e-06
3.27139e-06
-5.14895e-06
4.02896e-06
-5.21821e-06
4.78504e-06
-5.15914e-06
5.52948e-06
-5.02073e-06
6.25517e-06
-4.8351e-06
6.95725e-06
-4.62327e-06
7.63251e-06
-4.39887e-06
8.27893e-06
-4.17059e-06
8.89527e-06
-3.94369e-06
9.48082e-06
-3.72107e-06
1.00352e-05
-3.50393e-06
1.0558e-05
-3.29217e-06
1.1049e-05
-3.08473e-06
1.15076e-05
-2.87967e-06
1.1933e-05
-2.67427e-06
1.2324e-05
-2.465e-06
1.26788e-05
-2.24751e-06
1.29949e-05
-2.01656e-06
1.32689e-05
-1.76591e-06
1.34966e-05
-1.48831e-06
1.36726e-05
-1.17533e-06
1.37906e-05
-8.17305e-07
1.38431e-05
-4.03167e-07
1.38216e-05
7.97805e-08
1.3717e-05
6.46067e-07
1.35193e-05
1.31183e-06
1.32184e-05
2.09451e-06
1.28046e-05
3.01189e-06
1.22703e-05
4.07973e-06
1.16108e-05
5.30709e-06
1.08257e-05
6.68796e-06
9.9192e-06
8.1864e-06
8.90014e-06
9.71436e-06
7.78174e-06
1.10983e-05
6.59859e-06
1.20527e-05
5.38638e-06
1.21029e-05
4.08572e-06
1.05277e-05
2.62019e-06
6.78893e-06
1.13572e-06
-2.49656e-07
-1.24856e-05
2.38778e-07
5.44492e-06
5.52285e-07
9.75308e-07
1.03188e-06
-1.95425e-06
1.61332e-06
-3.81259e-06
2.26156e-06
-4.9393e-06
2.95161e-06
-5.56716e-06
3.66514e-06
-5.86248e-06
4.3881e-06
-5.94117e-06
5.10974e-06
-5.88078e-06
5.82178e-06
-5.73277e-06
6.51799e-06
-5.53131e-06
7.19377e-06
-5.29905e-06
7.84582e-06
-5.05092e-06
8.47183e-06
-4.7966e-06
9.07021e-06
-4.54207e-06
9.63985e-06
-4.29071e-06
1.018e-05
-4.04403e-06
1.06899e-05
-3.80208e-06
1.11689e-05
-3.56378e-06
1.16163e-05
-3.32707e-06
1.2031e-05
-3.089e-06
1.24117e-05
-2.84569e-06
1.27565e-05
-2.59227e-06
1.30628e-05
-2.32289e-06
1.33275e-05
-2.03056e-06
1.35463e-05
-1.70718e-06
1.37144e-05
-1.34339e-06
1.38257e-05
-9.28596e-07
1.38734e-05
-4.50866e-07
1.385e-05
1.03205e-07
1.37474e-05
7.48612e-07
1.35576e-05
1.50169e-06
1.32726e-05
2.37952e-06
1.28858e-05
3.39869e-06
1.23929e-05
4.57259e-06
1.17931e-05
5.90686e-06
1.10899e-05
7.39119e-06
1.02908e-05
8.98546e-06
9.40639e-06
1.05988e-05
8.44668e-06
1.2058e-05
7.42473e-06
1.30747e-05
6.33751e-06
1.31901e-05
5.10813e-06
1.1757e-05
3.65337e-06
8.24369e-06
1.91794e-06
1.48577e-06
-1.05676e-05
4.40861e-07
5.00406e-06
8.68714e-07
5.47456e-07
1.41018e-06
-2.49572e-06
2.01874e-06
-4.42115e-06
2.66728e-06
-5.58784e-06
3.34012e-06
-6.24e-06
4.02682e-06
-6.54919e-06
4.719e-06
-6.63334e-06
5.40935e-06
-6.57113e-06
6.09153e-06
-6.41496e-06
6.76023e-06
-6.2e-06
7.41116e-06
-5.94998e-06
8.04102e-06
-5.68079e-06
8.64731e-06
-5.40288e-06
9.22813e-06
-5.12288e-06
9.78204e-06
-4.84463e-06
1.03079e-05
-4.56991e-06
1.08048e-05
-4.29893e-06
1.12717e-05
-4.03067e-06
1.17076e-05
-3.76299e-06
1.21113e-05
-3.49275e-06
1.24814e-05
-3.21577e-06
1.28159e-05
-2.92677e-06
1.31124e-05
-2.61934e-06
1.33676e-05
-2.28583e-06
1.35778e-05
-1.91738e-06
1.37382e-05
-1.50381e-06
1.38434e-05
-1.03374e-06
1.38871e-05
-4.94577e-07
1.38627e-05
1.27576e-07
1.37635e-05
8.47894e-07
1.35826e-05
1.68252e-06
1.33144e-05
2.64779e-06
1.29543e-05
3.7587e-06
1.25008e-05
5.02609e-06
1.19555e-05
6.45214e-06
1.13241e-05
8.02264e-06
1.06154e-05
9.6942e-06
9.83918e-06
1.1375e-05
9.00113e-06
1.2896e-05
8.09752e-06
1.39783e-05
7.09664e-06
1.4191e-05
5.90347e-06
1.29502e-05
4.42405e-06
9.72311e-06
2.50261e-06
3.4072e-06
-8.065e-06
5.77767e-07
4.42629e-06
1.12924e-06
-4.01996e-09
1.74078e-06
-3.10725e-06
2.38113e-06
-5.0615e-06
3.03385e-06
-6.24056e-06
3.69316e-06
-6.89931e-06
4.35662e-06
-7.21264e-06
5.02134e-06
-7.29807e-06
5.68339e-06
-7.23317e-06
6.33823e-06
-7.0698e-06
6.98144e-06
-6.84322e-06
7.60912e-06
-6.57766e-06
8.21798e-06
-6.28966e-06
8.80539e-06
-5.99029e-06
9.36921e-06
-5.68671e-06
9.90774e-06
-5.38315e-06
1.04195e-05
-5.0817e-06
1.09033e-05
-4.78274e-06
1.1358e-05
-4.4853e-06
1.17822e-05
-4.18724e-06
1.21748e-05
-3.88529e-06
1.2534e-05
-3.57503e-06
1.28581e-05
-3.25083e-06
1.31445e-05
-2.90579e-06
1.33904e-05
-2.53171e-06
1.35921e-05
-2.11903e-06
1.37451e-05
-1.65689e-06
1.38446e-05
-1.13323e-06
1.3885e-05
-5.34969e-07
1.38605e-05
1.52055e-07
1.37655e-05
9.42965e-07
1.35945e-05
1.85344e-06
1.33435e-05
2.89882e-06
1.30099e-05
4.09232e-06
1.25938e-05
5.44221e-06
1.20985e-05
6.9474e-06
1.15308e-05
8.59038e-06
1.08995e-05
1.03255e-05
1.02126e-05
1.20618e-05
9.47097e-06
1.36377e-05
8.6585e-06
1.47908e-05
7.72298e-06
1.51265e-05
6.55295e-06
1.41203e-05
5.0259e-06
1.12502e-05
2.93672e-06
5.49638e-06
-5.12828e-06
6.74373e-07
3.75192e-06
1.34695e-06
-6.76595e-07
2.03123e-06
-3.79153e-06
2.70526e-06
-5.73554e-06
3.36394e-06
-6.89924e-06
4.01188e-06
-7.54725e-06
4.65466e-06
-7.85542e-06
5.29471e-06
-7.93811e-06
5.93114e-06
-7.8696e-06
6.56106e-06
-7.69972e-06
7.18084e-06
-7.463e-06
7.78691e-06
-7.18373e-06
8.37606e-06
-6.87881e-06
8.94554e-06
-6.55977e-06
9.49304e-06
-6.2342e-06
1.00166e-05
-5.90671e-06
1.05145e-05
-5.57965e-06
1.09854e-05
-5.25358e-06
1.14277e-05
-4.92765e-06
1.18402e-05
-4.59971e-06
1.22214e-05
-4.26644e-06
1.25696e-05
-3.92326e-06
1.2883e-05
-3.56425e-06
1.31593e-05
-3.18212e-06
1.33958e-05
-2.76817e-06
1.3589e-05
-2.31225e-06
1.3735e-05
-1.80287e-06
1.38292e-05
-1.22747e-06
1.38669e-05
-5.72601e-07
1.3843e-05
1.75959e-07
1.37528e-05
1.03309e-06
1.35925e-05
2.01382e-06
1.33589e-05
3.13233e-06
1.30512e-05
4.40006e-06
1.26707e-05
5.82274e-06
1.22217e-05
7.39637e-06
1.17113e-05
9.10078e-06
1.11477e-05
1.08891e-05
1.05367e-05
1.26728e-05
9.87473e-06
1.42997e-05
9.13656e-06
1.55289e-05
8.25594e-06
1.60071e-05
7.10593e-06
1.52703e-05
5.52832e-06
1.28278e-05
3.26699e-06
7.75771e-06
-1.8613e-06
7.53306e-07
2.99861e-06
1.53625e-06
-1.45953e-06
2.29022e-06
-4.54551e-06
2.99648e-06
-6.44179e-06
3.6605e-06
-7.56326e-06
4.29755e-06
-8.18429e-06
4.92118e-06
-8.47905e-06
5.53873e-06
-8.55566e-06
6.15194e-06
-8.48281e-06
6.75921e-06
-8.30699e-06
7.35755e-06
-8.06134e-06
7.94366e-06
-7.76984e-06
8.5144e-06
-7.44955e-06
9.06696e-06
-7.11232e-06
9.59885e-06
-6.7661e-06
1.01079e-05
-6.4158e-06
1.05924e-05
-6.06406e-06
1.10504e-05
-5.71161e-06
1.14804e-05
-5.35771e-06
1.1881e-05
-5.0003e-06
1.22506e-05
-4.63604e-06
1.25876e-05
-4.26025e-06
1.28902e-05
-3.86682e-06
1.31562e-05
-3.44816e-06
1.33832e-05
-2.99511e-06
1.3568e-05
-2.49705e-06
1.3707e-05
-1.94194e-06
1.37963e-05
-1.31677e-06
1.38316e-05
-6.07911e-07
1.38088e-05
1.98755e-07
1.37242e-05
1.1177e-06
1.35748e-05
2.16321e-06
1.33589e-05
3.34823e-06
1.30765e-05
4.68246e-06
1.273e-05
6.16928e-06
1.23243e-05
7.80213e-06
1.18662e-05
9.55881e-06
1.13632e-05
1.13922e-05
1.08188e-05
1.32171e-05
1.02258e-05
1.48927e-05
9.55261e-06
1.62021e-05
8.72334e-06
1.68364e-05
7.5969e-06
1.63967e-05
5.97764e-06
1.4447e-05
3.56721e-06
1.01681e-05
1.70592e-06
8.2793e-07
2.17068e-06
1.70907e-06
-2.34068e-06
2.52628e-06
-5.36271e-06
3.26027e-06
-7.17579e-06
3.92663e-06
-8.22962e-06
4.55161e-06
-8.80927e-06
5.1566e-06
-9.08404e-06
5.75325e-06
-9.15232e-06
6.34529e-06
-9.07485e-06
6.93199e-06
-8.89369e-06
7.51077e-06
-8.64012e-06
8.0785e-06
-8.33758e-06
8.63211e-06
-8.00316e-06
9.16872e-06
-7.64894e-06
9.68575e-06
-7.28312e-06
1.01809e-05
-6.91094e-06
1.06521e-05
-6.53525e-06
1.10974e-05
-6.15698e-06
1.15153e-05
-5.77552e-06
1.19039e-05
-5.38891e-06
1.22617e-05
-4.9939e-06
1.25872e-05
-4.58577e-06
1.28787e-05
-4.1583e-06
1.31342e-05
-3.70366e-06
1.33515e-05
-3.21238e-06
1.35278e-05
-2.67338e-06
1.366e-05
-2.07415e-06
1.37446e-05
-1.40132e-06
1.37779e-05
-6.4121e-07
1.37566e-05
2.20053e-07
1.36779e-05
1.19641e-06
1.35398e-05
2.30129e-06
1.33416e-05
3.54648e-06
1.3084e-05
4.94003e-06
1.27701e-05
6.48318e-06
1.24051e-05
8.16712e-06
1.19957e-05
9.96825e-06
1.1548e-05
1.18399e-05
1.10641e-05
1.3701e-05
1.05338e-05
1.54229e-05
9.92199e-06
1.6814e-05
9.14711e-06
1.76113e-05
8.05742e-06
1.74864e-05
6.42437e-06
1.60801e-05
3.89629e-06
1.26962e-05
5.60221e-06
9.04305e-07
1.26637e-06
1.87438e-06
-3.31075e-06
2.74715e-06
-6.23548e-06
3.50194e-06
-7.93058e-06
4.16533e-06
-8.89302e-06
4.77553e-06
-9.41947e-06
5.36151e-06
-9.67002e-06
5.93835e-06
-9.72916e-06
6.51095e-06
-9.64745e-06
7.07892e-06
-9.46166e-06
7.63982e-06
-9.20101e-06
8.19063e-06
-8.88839e-06
8.7283e-06
-8.54083e-06
9.2499e-06
-8.17054e-06
9.75276e-06
-7.78598e-06
1.02344e-05
-7.39261e-06
1.06927e-05
-6.99353e-06
1.11256e-05
-6.58984e-06
1.15311e-05
-6.18107e-06
1.19076e-05
-5.76543e-06
1.22536e-05
-5.3398e-06
1.25673e-05
-4.89954e-06
1.28474e-05
-4.43837e-06
1.3092e-05
-3.94832e-06
1.32994e-05
-3.4197e-06
1.34671e-05
-2.84107e-06
1.35924e-05
-2.19948e-06
1.36723e-05
-1.48122e-06
1.37037e-05
-6.72675e-07
1.36842e-05
2.39607e-07
1.36117e-05
1.26893e-06
1.34851e-05
2.42787e-06
1.33045e-05
3.72709e-06
1.30713e-05
5.17322e-06
1.2789e-05
6.76551e-06
1.24628e-05
8.49325e-06
1.20992e-05
1.03319e-05
1.17033e-05
1.22357e-05
1.12758e-05
1.41285e-05
1.08054e-05
1.58933e-05
1.02555e-05
1.73639e-05
9.54379e-06
1.8323e-05
8.51412e-06
1.85161e-05
6.91222e-06
1.7682e-05
4.31054e-06
1.52979e-05
9.91274e-06
9.85306e-07
2.81063e-07
2.03945e-06
-4.36489e-06
2.96002e-06
-7.15606e-06
3.72634e-06
-8.69689e-06
4.37933e-06
-9.54601e-06
4.97074e-06
-1.00109e-05
5.53664e-06
-1.02359e-05
6.09433e-06
-1.02869e-05
6.6489e-06
-1.0202e-05
7.1997e-06
-1.00125e-05
7.74419e-06
-9.7455e-06
8.27934e-06
-9.42354e-06
8.80211e-06
-9.06359e-06
9.30953e-06
-8.67796e-06
9.79883e-06
-8.27527e-06
1.02674e-05
-7.86123e-06
1.07131e-05
-7.43915e-06
1.11335e-05
-7.01031e-06
1.15268e-05
-6.57436e-06
1.18911e-05
-6.12972e-06
1.22248e-05
-5.6735e-06
1.25265e-05
-5.2012e-06
1.27947e-05
-4.7066e-06
1.30281e-05
-4.18171e-06
1.32251e-05
-3.6167e-06
1.33838e-05
-2.99984e-06
1.35021e-05
-2.31773e-06
1.35773e-05
-1.55638e-06
1.36069e-05
-7.02335e-07
1.35892e-05
2.57314e-07
1.3523e-05
1.33514e-06
1.34081e-05
2.54283e-06
1.32451e-05
3.89009e-06
1.30359e-05
5.38237e-06
1.27843e-05
7.01711e-06
1.24956e-05
8.78193e-06
1.21758e-05
1.06518e-05
1.18292e-05
1.25823e-05
1.1456e-05
1.45017e-05
1.10445e-05
1.63048e-05
1.05598e-05
1.78486e-05
9.92397e-06
1.89588e-05
8.98635e-06
1.94537e-05
7.48001e-06
1.91883e-05
4.86939e-06
1.79085e-05
1.47821e-05
1.07371e-06
-7.92645e-07
2.21199e-06
-5.50317e-06
3.17229e-06
-8.11635e-06
3.9379e-06
-9.46251e-06
4.57093e-06
-1.0179e-05
5.13863e-06
-1.05786e-05
5.68296e-06
-1.07803e-05
6.22189e-06
-1.08258e-05
6.75951e-06
-1.07396e-05
7.29438e-06
-1.05473e-05
7.82361e-06
-1.02747e-05
8.34411e-06
-9.94404e-06
8.8528e-06
-9.57229e-06
9.34669e-06
-9.17185e-06
9.82289e-06
-8.75148e-06
1.02788e-05
-8.31712e-06
1.07119e-05
-7.87229e-06
1.112e-05
-7.41842e-06
1.1501e-05
-6.95528e-06
1.18528e-05
-6.48155e-06
1.21739e-05
-5.99464e-06
1.2463e-05
-5.49031e-06
1.27189e-05
-4.9625e-06
1.29405e-05
-4.40328e-06
1.31266e-05
-3.80283e-06
1.3276e-05
-3.14921e-06
1.33868e-05
-2.42858e-06
1.34571e-05
-1.6266e-06
1.34848e-05
-7.30062e-07
1.34689e-05
2.7323e-07
1.3409e-05
1.39501e-06
1.33057e-05
2.64611e-06
1.31603e-05
4.03549e-06
1.2975e-05
5.56772e-06
1.27535e-05
7.23856e-06
1.25013e-05
9.0341e-06
1.22239e-05
1.09292e-05
1.19252e-05
1.2881e-05
1.16048e-05
1.48221e-05
1.12524e-05
1.66573e-05
1.08371e-05
1.82639e-05
1.02913e-05
1.95046e-05
9.48272e-06
2.02622e-05
8.16247e-06
2.05086e-05
5.63782e-06
2.04332e-05
2.042e-05
1.17199e-06
-1.96463e-06
2.40444e-06
-6.73563e-06
3.39285e-06
-9.10476e-06
4.14033e-06
-1.021e-05
4.74185e-06
-1.07806e-05
5.28066e-06
-1.11174e-05
5.80211e-06
-1.13017e-05
6.32264e-06
-1.13463e-05
6.84424e-06
-1.12612e-05
7.36416e-06
-1.10672e-05
7.87902e-06
-1.07896e-05
8.38564e-06
-1.04507e-05
8.88091e-06
-1.00676e-05
9.36176e-06
-9.6527e-06
9.82524e-06
-9.21495e-06
1.02686e-05
-8.76049e-06
1.06893e-05
-8.29304e-06
1.10851e-05
-7.81416e-06
1.14535e-05
-7.32372e-06
1.17927e-05
-6.82067e-06
1.21009e-05
-6.30287e-06
1.2377e-05
-5.7664e-06
1.26199e-05
-5.20547e-06
1.2829e-05
-4.61237e-06
1.30036e-05
-3.97742e-06
1.3143e-05
-3.28859e-06
1.3246e-05
-2.53153e-06
1.33108e-05
-1.69148e-06
1.33363e-05
-7.55554e-07
1.3322e-05
2.87578e-07
1.32683e-05
1.44869e-06
1.31766e-05
2.73779e-06
1.30488e-05
4.16334e-06
1.2887e-05
5.72948e-06
1.26952e-05
7.43033e-06
1.24788e-05
9.25051e-06
1.22428e-05
1.11652e-05
1.19907e-05
1.31331e-05
1.17222e-05
1.50906e-05
1.14289e-05
1.69506e-05
1.10862e-05
1.86066e-05
1.06419e-05
1.99488e-05
9.99771e-06
2.09064e-05
8.96206e-06
2.15442e-05
6.79667e-06
2.25986e-05
2.72166e-05
1.69936e-06
-1.69936e-06
-2.57477e-06
4.27415e-06
-8.01204e-06
5.43727e-06
-1.33373e-05
5.32525e-06
-1.81905e-05
4.85326e-06
-2.25892e-05
4.39866e-06
-2.6832e-05
4.24279e-06
-3.12968e-05
4.46482e-06
-3.5881e-05
4.58421e-06
-4.05976e-05
4.71657e-06
-4.53979e-05
4.80033e-06
-5.00184e-05
4.62045e-06
-5.43105e-05
4.29212e-06
-5.81461e-05
3.83562e-06
-6.14239e-05
3.2778e-06
-6.40928e-05
2.66883e-06
-6.61567e-05
2.06389e-06
-6.7657e-05
1.50034e-06
-6.86418e-05
9.84817e-07
-6.9148e-05
5.06145e-07
-6.91886e-05
4.06835e-08
-6.88337e-05
-3.54884e-07
-6.8095e-05
-7.38789e-07
-6.69586e-05
-1.13635e-06
-6.5401e-05
-1.55759e-06
-6.33944e-05
-2.00663e-06
-6.09112e-05
-2.48317e-06
-5.79267e-05
-2.98451e-06
-5.44153e-05
-3.51149e-06
-5.03396e-05
-4.0757e-06
-4.56314e-05
-4.70817e-06
-4.01769e-05
-5.45452e-06
-3.3809e-05
-6.36793e-06
-2.63506e-05
-7.4584e-06
-1.77865e-05
-8.5641e-06
-8.77668e-06
-9.00978e-06
-1.6116e-06
-7.16511e-06
-1.61158e-06
-1.65846e-06
-4.08804e-08
-6.90941e-06
9.52512e-06
-1.33272e-05
1.18551e-05
-1.98141e-05
1.18122e-05
-2.6073e-05
1.11122e-05
-3.21979e-05
1.05235e-05
-3.81798e-05
1.02248e-05
-4.38623e-05
1.01473e-05
-4.9119e-05
9.84093e-06
-5.3695e-05
9.29257e-06
-5.76845e-05
8.78978e-06
-6.11409e-05
8.07679e-06
-6.40408e-05
7.19208e-06
-6.63861e-05
6.18085e-06
-6.82105e-05
5.10221e-06
-6.95701e-05
4.02843e-06
-7.05255e-05
3.01931e-06
-7.1128e-05
2.10277e-06
-7.14154e-05
1.27226e-06
-7.14135e-05
5.04287e-07
-7.11399e-05
-2.32944e-07
-7.0546e-05
-9.48733e-07
-6.95983e-05
-1.68654e-06
-6.8277e-05
-2.45768e-06
-6.65596e-05
-3.27498e-06
-6.44217e-05
-4.14451e-06
-6.18397e-05
-5.0652e-06
-5.87932e-05
-6.03101e-06
-5.52633e-05
-7.04132e-06
-5.12205e-05
-8.11854e-06
-4.66074e-05
-9.32129e-06
-4.13213e-05
-1.07407e-05
-3.52145e-05
-1.24747e-05
-2.81418e-05
-1.45311e-05
-2.01004e-05
-1.66056e-05
-1.15822e-05
-1.75279e-05
-3.72095e-06
-1.50264e-05
-5.33251e-06
-4.09834e-06
4.05747e-06
-9.83155e-06
1.52583e-05
-1.61679e-05
1.81915e-05
-2.25374e-05
1.81816e-05
-2.87946e-05
1.73695e-05
-3.48339e-05
1.65628e-05
-4.0499e-05
1.58898e-05
-4.55713e-05
1.52196e-05
-5.00854e-05
1.4355e-05
-5.41557e-05
1.33628e-05
-5.77404e-05
1.23745e-05
-6.08839e-05
1.12203e-05
-6.35944e-05
9.9026e-06
-6.5871e-05
8.45748e-06
-6.77188e-05
6.94995e-06
-6.91519e-05
5.46153e-06
-7.01934e-05
4.06075e-06
-7.08709e-05
2.78031e-06
-7.12101e-05
1.61147e-06
-7.12263e-05
5.20522e-07
-7.09256e-05
-5.33714e-07
-7.02918e-05
-1.58255e-06
-6.9315e-05
-2.66325e-06
-6.79781e-05
-3.79461e-06
-6.62597e-05
-4.99337e-06
-6.41368e-05
-6.26736e-06
-6.15878e-05
-7.61421e-06
-5.85956e-05
-9.02316e-06
-5.51471e-05
-1.04899e-05
-5.12217e-05
-1.20439e-05
-4.6774e-05
-1.3769e-05
-4.17176e-05
-1.57971e-05
-3.59263e-05
-1.8266e-05
-2.92644e-05
-2.11929e-05
-2.16756e-05
-2.41945e-05
-1.33221e-05
-2.58813e-05
-5.08233e-06
-2.32662e-05
-1.04148e-05
-5.60811e-06
9.66558e-06
-1.15918e-05
2.12421e-05
-1.77114e-05
2.43111e-05
-2.37313e-05
2.42015e-05
-2.95902e-05
2.32285e-05
-3.51797e-05
2.21523e-05
-4.03621e-05
2.10722e-05
-4.50537e-05
1.99112e-05
-4.93243e-05
1.86257e-05
-5.32525e-05
1.7291e-05
-5.68008e-05
1.59228e-05
-5.99722e-05
1.43916e-05
-6.27519e-05
1.26824e-05
-6.51178e-05
1.08233e-05
-6.70533e-05
8.88538e-06
-6.85576e-05
6.9659e-06
-6.96485e-05
5.15163e-06
-7.0356e-05
3.4878e-06
-7.07105e-05
1.96598e-06
-7.07333e-05
5.43366e-07
-7.04335e-05
-8.33542e-07
-6.98072e-05
-2.20891e-06
-6.88459e-05
-3.62449e-06
-6.75338e-05
-5.1068e-06
-6.585e-05
-6.67709e-06
-6.3772e-05
-8.34542e-06
-6.1278e-05
-1.01082e-05
-5.83529e-05
-1.19483e-05
-5.49882e-05
-1.38545e-05
-5.11724e-05
-1.58598e-05
-4.68703e-05
-1.80712e-05
-4.20061e-05
-2.06613e-05
-3.64585e-05
-2.38136e-05
-3.00746e-05
-2.75768e-05
-2.27277e-05
-3.15414e-05
-1.44209e-05
-3.41881e-05
-5.8936e-06
-3.17935e-05
-1.63084e-05
-6.46097e-06
1.61266e-05
-1.25628e-05
2.73439e-05
-1.84708e-05
3.02191e-05
-2.41706e-05
2.99013e-05
-2.9651e-05
2.87088e-05
-3.48568e-05
2.73581e-05
-3.97198e-05
2.59353e-05
-4.422e-05
2.44114e-05
-4.84002e-05
2.28058e-05
-5.22809e-05
2.11717e-05
-5.58318e-05
1.94736e-05
-5.90389e-05
1.75987e-05
-6.1873e-05
1.55165e-05
-6.42989e-05
1.32493e-05
-6.62888e-05
1.08752e-05
-6.78349e-05
8.51199e-06
-6.89543e-05
6.27109e-06
-6.96818e-05
4.2153e-06
-7.00538e-05
2.33796e-06
-7.00968e-05
5.86351e-07
-6.98224e-05
-1.10791e-06
-6.92299e-05
-2.80142e-06
-6.83109e-05
-4.54354e-06
-6.70492e-05
-6.36849e-06
-6.54237e-05
-8.30257e-06
-6.34102e-05
-1.03589e-05
-6.09854e-05
-1.2533e-05
-5.81336e-05
-1.48002e-05
-5.48506e-05
-1.71375e-05
-5.11332e-05
-1.95772e-05
-4.69549e-05
-2.22495e-05
-4.22445e-05
-2.53716e-05
-3.68744e-05
-2.91837e-05
-3.06628e-05
-3.37884e-05
-2.34224e-05
-3.87818e-05
-1.51073e-05
-4.25031e-05
-6.37123e-06
-4.05296e-05
-2.26797e-05
-6.90005e-06
2.30266e-05
-1.30288e-05
3.34726e-05
-1.87545e-05
3.59449e-05
-2.41975e-05
3.53442e-05
-2.93849e-05
3.38962e-05
-3.43094e-05
3.22827e-05
-3.89531e-05
3.05789e-05
-4.33154e-05
2.87737e-05
-4.74136e-05
2.6904e-05
-5.12426e-05
2.50008e-05
-5.47755e-05
2.30064e-05
-5.79914e-05
2.08146e-05
-6.08535e-05
1.83786e-05
-6.33172e-05
1.5713e-05
-6.53448e-05
1.29029e-05
-6.69221e-05
1.00893e-05
-6.80662e-05
7.41515e-06
-6.8817e-05
4.96609e-06
-6.92175e-05
2.73854e-06
-6.92986e-05
6.67419e-07
-6.90733e-05
-1.33319e-06
-6.85405e-05
-3.33418e-06
-6.76907e-05
-5.39338e-06
-6.65065e-05
-7.55269e-06
-6.49649e-05
-9.84414e-06
-6.30387e-05
-1.2285e-05
-6.07004e-05
-1.48713e-05
-5.79315e-05
-1.75691e-05
-5.47309e-05
-2.0338e-05
-5.11041e-05
-2.3204e-05
-4.70323e-05
-2.63214e-05
-4.24456e-05
-2.99584e-05
-3.72048e-05
-3.44245e-05
-3.10981e-05
-3.98951e-05
-2.38925e-05
-4.59874e-05
-1.55189e-05
-5.08768e-05
-6.6096e-06
-4.94388e-05
-2.92893e-05
-7.08743e-06
3.01141e-05
-1.31794e-05
3.95646e-05
-1.8743e-05
4.15085e-05
-2.39719e-05
4.05731e-05
-2.89245e-05
3.88488e-05
-3.36253e-05
3.69835e-05
-3.80852e-05
3.50389e-05
-4.23112e-05
3.29997e-05
-4.63065e-05
3.08993e-05
-5.00582e-05
2.87525e-05
-5.35434e-05
2.64916e-05
-5.6739e-05
2.40102e-05
-5.96043e-05
2.12438e-05
-6.20866e-05
1.81954e-05
-6.41391e-05
1.49553e-05
-6.57406e-05
1.16908e-05
-6.69087e-05
8.58322e-06
-6.76893e-05
5.74678e-06
-6.81328e-05
3.18197e-06
-6.82731e-05
8.07749e-07
-6.81233e-05
-1.48303e-06
-6.76798e-05
-3.77769e-06
-6.69305e-05
-6.14269e-06
-6.58557e-05
-8.62745e-06
-6.44293e-05
-1.12705e-05
-6.26193e-05
-1.40951e-05
-6.03914e-05
-1.70993e-05
-5.77217e-05
-2.02388e-05
-5.46111e-05
-2.34486e-05
-5.10744e-05
-2.67407e-05
-4.71013e-05
-3.02945e-05
-4.26216e-05
-3.4438e-05
-3.74831e-05
-3.9563e-05
-3.14429e-05
-4.59353e-05
-2.42279e-05
-5.32025e-05
-1.57558e-05
-5.93489e-05
-6.69896e-06
-5.84957e-05
-3.59882e-05
-7.12698e-06
3.72411e-05
-1.31337e-05
4.55714e-05
-1.85369e-05
4.69117e-05
-2.35661e-05
4.56023e-05
-2.83058e-05
4.35884e-05
-3.28006e-05
4.14783e-05
-3.70784e-05
3.93168e-05
-4.115e-05
3.70713e-05
-4.50132e-05
3.47625e-05
-4.86539e-05
3.23931e-05
-5.2055e-05
2.98928e-05
-5.51952e-05
2.71505e-05
-5.8033e-05
2.40815e-05
-6.051e-05
2.06724e-05
-6.25709e-05
1.70162e-05
-6.41879e-05
1.33077e-05
-6.53792e-05
9.77453e-06
-6.61977e-05
6.56532e-06
-6.67009e-05
3.6851e-06
-6.69252e-05
1.03204e-06
-6.68815e-05
-1.52672e-06
-6.65619e-05
-4.0973e-06
-6.59502e-05
-6.75436e-06
-6.50233e-05
-9.55436e-06
-6.37506e-05
-1.25432e-05
-6.20937e-05
-1.5752e-05
-6.00089e-05
-1.91841e-05
-5.74637e-05
-2.2784e-05
-5.44595e-05
-2.64528e-05
-5.10226e-05
-3.01776e-05
-4.71524e-05
-3.41648e-05
-4.27787e-05
-3.88117e-05
-3.77349e-05
-4.46067e-05
-3.1746e-05
-5.19242e-05
-2.44976e-05
-6.04508e-05
-1.5901e-05
-6.79456e-05
-6.70992e-06
-6.76867e-05
-4.26981e-05
-7.08475e-06
4.43258e-05
-1.29642e-05
5.14509e-05
-1.819e-05
5.21376e-05
-2.30085e-05
5.04207e-05
-2.75281e-05
4.81081e-05
-3.18081e-05
4.57583e-05
-3.58862e-05
4.33949e-05
-3.97745e-05
4.09595e-05
-4.34681e-05
3.84561e-05
-4.69549e-05
3.58799e-05
-5.02253e-05
3.31632e-05
-5.32643e-05
3.01894e-05
-5.60337e-05
2.68509e-05
-5.84728e-05
2.31115e-05
-6.05198e-05
1.90632e-05
-6.21401e-05
1.49281e-05
-6.33528e-05
1.09872e-05
-6.42177e-05
7.43026e-06
-6.47993e-05
4.26661e-06
-6.51351e-05
1.36784e-06
-6.5232e-05
-1.42974e-06
-6.50758e-05
-4.25355e-06
-6.46446e-05
-7.18554e-06
-6.39108e-05
-1.02882e-05
-6.28383e-05
-1.36157e-05
-6.13808e-05
-1.72095e-05
-5.94821e-05
-2.10828e-05
-5.70971e-05
-2.51689e-05
-5.42263e-05
-2.93236e-05
-5.09106e-05
-3.34934e-05
-4.71616e-05
-3.79137e-05
-4.29097e-05
-4.30636e-05
-3.7974e-05
-4.95424e-05
-3.20441e-05
-5.78541e-05
-2.47571e-05
-6.77379e-05
-1.60152e-05
-7.66875e-05
-6.68526e-06
-7.70166e-05
-4.93834e-05
-7.00372e-06
5.13296e-05
-1.27138e-05
5.7161e-05
-1.77285e-05
5.71523e-05
-2.23044e-05
5.49966e-05
-2.65752e-05
5.23789e-05
-3.06123e-05
4.97954e-05
-3.44587e-05
4.72414e-05
-3.81244e-05
4.46252e-05
-4.16015e-05
4.19332e-05
-4.48799e-05
3.91583e-05
-4.79607e-05
3.6244e-05
-5.08403e-05
3.3069e-05
-5.34897e-05
2.95003e-05
-5.58502e-05
2.5472e-05
-5.78558e-05
2.10688e-05
-5.94647e-05
1.6537e-05
-6.06952e-05
1.22177e-05
-6.1614e-05
8.34903e-06
-6.22917e-05
4.94436e-06
-6.27661e-05
1.84222e-06
-6.30386e-05
-1.15724e-06
-6.30869e-05
-4.20521e-06
-6.28827e-05
-7.38978e-06
-6.23929e-05
-1.0778e-05
-6.15751e-05
-1.44336e-05
-6.03731e-05
-1.84114e-05
-5.87148e-05
-2.27412e-05
-5.65372e-05
-2.73464e-05
-5.38382e-05
-3.20227e-05
-5.0678e-05
-3.66535e-05
-4.70847e-05
-4.1507e-05
-4.299e-05
-4.71584e-05
-3.81989e-05
-5.43334e-05
-3.23612e-05
-6.36918e-05
-2.50487e-05
-7.50504e-05
-1.6139e-05
-8.55972e-05
-6.64102e-06
-8.65146e-05
-5.60244e-05
-6.91501e-06
5.82446e-05
-1.24084e-05
6.26545e-05
-1.71622e-05
6.19061e-05
-2.14459e-05
5.92804e-05
-2.54208e-05
5.63538e-05
-2.91705e-05
5.35451e-05
-3.27404e-05
5.08112e-05
-3.61339e-05
4.80187e-05
-3.93372e-05
4.51366e-05
-4.23423e-05
4.21634e-05
-4.51638e-05
3.90655e-05
-4.78162e-05
3.57215e-05
-5.02865e-05
3.19706e-05
-5.25233e-05
2.77088e-05
-5.44585e-05
2.30039e-05
-5.60401e-05
1.81187e-05
-5.72829e-05
1.34605e-05
-5.82591e-05
9.32525e-06
-5.90454e-05
5.73059e-06
-5.96787e-05
2.47552e-06
-6.01549e-05
-6.81015e-07
-6.0444e-05
-3.91605e-06
-6.0511e-05
-7.32279e-06
-6.03177e-05
-1.09713e-05
-5.98143e-05
-1.49371e-05
-5.89334e-05
-1.92922e-05
-5.75817e-05
-2.40929e-05
-5.5671e-05
-2.92571e-05
-5.31936e-05
-3.45001e-05
-5.0237e-05
-3.96101e-05
-4.68515e-05
-4.48925e-05
-4.29714e-05
-5.10385e-05
-3.83885e-05
-5.89163e-05
-3.27065e-05
-6.93738e-05
-2.54059e-05
-8.2351e-05
-1.6304e-05
-9.46991e-05
-6.57835e-06
-9.62403e-05
-6.26028e-05
-6.84574e-06
6.50903e-05
-1.20646e-05
6.78734e-05
-1.64896e-05
6.63311e-05
-2.04145e-05
6.32053e-05
-2.4029e-05
5.99683e-05
-2.74312e-05
5.69474e-05
-3.06672e-05
5.40473e-05
-3.37304e-05
5.10819e-05
-3.65965e-05
4.80027e-05
-3.92573e-05
4.48242e-05
-4.17444e-05
4.15525e-05
-4.40981e-05
3.80753e-05
-4.6329e-05
3.42014e-05
-4.83985e-05
2.97783e-05
-5.0237e-05
2.48424e-05
-5.17771e-05
1.96588e-05
-5.30241e-05
1.47076e-05
-5.40547e-05
1.03558e-05
-5.4951e-05
6.62684e-06
-5.57494e-05
3.27392e-06
-5.64414e-05
1.10178e-08
-5.6992e-05
-3.36546e-06
-5.73619e-05
-6.95285e-06
-5.75101e-05
-1.08231e-05
-5.73803e-05
-1.50669e-05
-5.68928e-05
-1.97798e-05
-5.5926e-05
-2.50597e-05
-5.43545e-05
-3.08286e-05
-5.21594e-05
-3.66952e-05
-4.94675e-05
-4.2302e-05
-4.63603e-05
-4.79996e-05
-4.27764e-05
-5.46224e-05
-3.84959e-05
-6.31968e-05
-3.30722e-05
-7.47975e-05
-2.58586e-05
-8.95645e-05
-1.65523e-05
-0.000104005
-6.50495e-06
-0.000106288
-6.91077e-05
-6.8289e-06
7.19192e-05
-1.16942e-05
7.27387e-05
-1.56999e-05
7.03367e-05
-1.91806e-05
6.6686e-05
-2.2352e-05
6.31397e-05
-2.53311e-05
5.99265e-05
-2.81665e-05