/*--------------------------------*- C++ -*----------------------------------*\
  =========                 |
  \\      /  F ield         | OpenFOAM: The Open Source CFD Toolbox
   \\    /   O peration     | Website:  https://openfoam.org
    \\  /    A nd           | Version:  7
     \\/     M anipulation  |
\*---------------------------------------------------------------------------*/
FoamFile
{
    version     2.0;
    format      ascii;
    class       volVectorField;
    location    "0.5";
    object      U;
}
// * * * * * * * * * * * * * * * * * * * * * * * * * * * * * * * * * * * * * //

dimensions      [0 1 -1 0 0 0 0];

internalField   nonuniform List<vector> 
9072
(
(-0.0252643 0.0115161 0)
(-0.0569398 0.00806856 0)
(-0.0690699 0.000734846 0)
(-0.0606306 -0.00423642 0)
(-0.0448402 -0.00624833 0)
(-0.0243444 -0.00716001 0)
(-0.00202938 -0.0073776 0)
(0.0207769 -0.00729723 0)
(0.043242 -0.00703237 0)
(0.0649417 -0.0066779 0)
(0.0856323 -0.00628584 0)
(0.105201 -0.00588514 0)
(0.123617 -0.00549286 0)
(0.140899 -0.00511864 0)
(0.157087 -0.00476715 0)
(0.172238 -0.00443991 0)
(0.186412 -0.0041363 0)
(0.199665 -0.00385424 0)
(0.21205 -0.00359052 0)
(0.223607 -0.0033411 0)
(0.234366 -0.00310114 0)
(0.244338 -0.00286496 0)
(0.253518 -0.00262603 0)
(0.261878 -0.00237678 0)
(0.269363 -0.00210842 0)
(0.275889 -0.00181058 0)
(0.281334 -0.00146998 0)
(0.285523 -0.00106864 0)
(0.288239 -0.00055863 0)
(0.289095 0.000147228 0)
(0.287274 0.00105729 0)
(0.28245 0.00215188 0)
(0.274072 0.00345672 0)
(0.261352 0.00504778 0)
(0.243335 0.00698859 0)
(0.218941 0.00930317 0)
(0.187076 0.0119363 0)
(0.146851 0.0146739 0)
(0.098165 0.0171123 0)
(0.0410888 0.0187025 0)
(-0.0191739 0.0207718 0)
(-0.0906855 0.0219195 0)
(-0.161714 0.0146844 0)
(-0.193196 -0.00372145 0)
(-0.155789 -0.0266419 0)
(-0.0630903 -0.0348732 0)
(-0.0300905 0.0272017 0)
(-0.0453024 0.015194 0)
(-0.0457611 0.000663495 0)
(-0.0368314 -0.00859302 0)
(-0.021619 -0.0132396 0)
(-0.00254861 -0.0155041 0)
(0.0183324 -0.0163587 0)
(0.0398617 -0.0164344 0)
(0.0612764 -0.0160548 0)
(0.0821352 -0.0154262 0)
(0.102185 -0.0146703 0)
(0.121292 -0.013861 0)
(0.1394 -0.0130433 0)
(0.156502 -0.0122438 0)
(0.172614 -0.0114769 0)
(0.187769 -0.0107489 0)
(0.202008 -0.0100611 0)
(0.215368 -0.00941059 0)
(0.227885 -0.00879175 0)
(0.239586 -0.00819655 0)
(0.250487 -0.00761481 0)
(0.26059 -0.00703417 0)
(0.26988 -0.00643994 0)
(0.278322 -0.0058148 0)
(0.285856 -0.00513838 0)
(0.292393 -0.00438646 0)
(0.29781 -0.00352895 0)
(0.301945 -0.00252673 0)
(0.304591 -0.00131375 0)
(0.305551 0.000214933 0)
(0.304687 0.0021061 0)
(0.301462 0.00438432 0)
(0.295305 0.00714356 0)
(0.285563 0.0105219 0)
(0.271437 0.0146489 0)
(0.251952 0.0196101 0)
(0.225954 0.0253784 0)
(0.192152 0.0316819 0)
(0.149463 0.0379124 0)
(0.0969666 0.0430368 0)
(0.0378241 0.0472331 0)
(-0.0284646 0.0489955 0)
(-0.0886661 0.0366335 0)
(-0.119384 0.00602041 0)
(-0.124237 -0.0403489 0)
(-0.061457 -0.0815581 0)
(-0.02523 0.0419778 0)
(-0.0313383 0.0175127 0)
(-0.0289462 -0.00220945 0)
(-0.0194246 -0.0143134 0)
(-0.00482226 -0.0209376 0)
(0.0130505 -0.0243043 0)
(0.0326199 -0.0256859 0)
(0.0528809 -0.0258949 0)
(0.0731505 -0.0254025 0)
(0.0930124 -0.0245083 0)
(0.112216 -0.0233984 0)
(0.130618 -0.0221884 0)
(0.148148 -0.0209498 0)
(0.164779 -0.0197255 0)
(0.180511 -0.0185398 0)
(0.19536 -0.0174042 0)
(0.20935 -0.0163219 0)
(0.222506 -0.0152896 0)
(0.23485 -0.0142995 0)
(0.246399 -0.0133398 0)
(0.25716 -0.012395 0)
(0.267126 -0.0114462 0)
(0.276277 -0.0104706 0)
(0.284573 -0.00944091 0)
(0.29195 -0.00832524 0)
(0.298318 -0.00708568 0)
(0.303558 -0.00567661 0)
(0.307514 -0.00404191 0)
(0.309992 -0.00210853 0)
(0.310778 0.000218593 0)
(0.309655 0.00304256 0)
(0.306257 0.00646357 0)
(0.300141 0.0106174 0)
(0.290801 0.0156757 0)
(0.277663 0.0218183 0)
(0.260084 0.0291907 0)
(0.237356 0.0378185 0)
(0.208713 0.0474425 0)
(0.17348 0.0573303 0)
(0.130984 0.0660731 0)
(0.0827942 0.072546 0)
(0.0318133 0.0735111 0)
(-0.017101 0.0563224 0)
(-0.0530165 0.0177076 0)
(-0.0804628 -0.0432602 0)
(-0.0428599 -0.122039 0)
(-0.0180644 0.0529862 0)
(-0.0195454 0.0182036 0)
(-0.0149931 -0.00533675 0)
(-0.00481954 -0.0200061 0)
(0.00941147 -0.028393 0)
(0.0263667 -0.0328097 0)
(0.0448294 -0.0347177 0)
(0.0639568 -0.0350869 0)
(0.0831623 -0.0345199 0)
(0.10207 -0.0334031 0)
(0.12044 -0.0319813 0)
(0.138129 -0.0304089 0)
(0.155055 -0.0287823 0)
(0.171177 -0.0271608 0)
(0.186481 -0.0255782 0)
(0.20097 -0.0240516 0)
(0.214653 -0.0225866 0)
(0.227544 -0.0211799 0)
(0.239655 -0.0198219 0)
(0.250991 -0.0184974 0)
(0.261553 -0.0171863 0)
(0.271328 -0.0158633 0)
(0.280289 -0.0144979 0)
(0.288393 -0.0130536 0)
(0.295575 -0.0114873 0)
(0.301746 -0.00974832 0)
(0.306788 -0.00777633 0)
(0.310552 -0.00549935 0)
(0.312856 -0.00282948 0)
(0.31349 0.000341549 0)
(0.312226 0.00413978 0)
(0.308762 0.00870314 0)
(0.302743 0.0141964 0)
(0.293773 0.0208127 0)
(0.281438 0.0287509 0)
(0.265313 0.0381705 0)
(0.244996 0.0491021 0)
(0.22012 0.0612756 0)
(0.190431 0.0738887 0)
(0.155696 0.0853036 0)
(0.116786 0.0934626 0)
(0.076912 0.0939226 0)
(0.0367066 0.0750799 0)
(0.00228893 0.0331428 0)
(-0.0358724 -0.0363448 0)
(-0.0187122 -0.145659 0)
(-0.01046 0.0595341 0)
(-0.00902926 0.0174054 0)
(-0.0028058 -0.00911219 0)
(0.00804629 -0.0258187 0)
(0.0221026 -0.0356694 0)
(0.0383663 -0.0409924 0)
(0.0558987 -0.0433769 0)
(0.0740225 -0.043913 0)
(0.0922529 -0.0433047 0)
(0.110263 -0.0420098 0)
(0.127834 -0.0403225 0)
(0.144825 -0.0384312 0)
(0.161149 -0.0364555 0)
(0.176756 -0.0344696 0)
(0.191619 -0.0325171 0)
(0.205728 -0.0306208 0)
(0.219082 -0.0287889 0)
(0.231683 -0.027019 0)
(0.243533 -0.0252999 0)
(0.254631 -0.023614 0)
(0.264968 -0.0219368 0)
(0.274527 -0.0202374 0)
(0.283277 -0.0184782 0)
(0.291171 -0.016614 0)
(0.298144 -0.0145913 0)
(0.304108 -0.0123475 0)
(0.308949 -0.00980901 0)
(0.312524 -0.0068895 0)
(0.314665 -0.00348706 0)
(0.315172 0.000519542 0)
(0.313827 0.00527272 0)
(0.310373 0.0109326 0)
(0.304521 0.0176807 0)
(0.295968 0.0257177 0)
(0.284416 0.0352404 0)
(0.269601 0.0463941 0)
(0.251327 0.059181 0)
(0.229478 0.0732902 0)
(0.204069 0.0878514 0)
(0.175164 0.101083 0)
(0.143321 0.110315 0)
(0.11097 0.11047 0)
(0.0775956 0.0920224 0)
(0.0454218 0.0494773 0)
(0.00433202 -0.0247268 0)
(0.00468225 -0.151447 0)
(-0.00330578 0.0621259 0)
(0.000258708 0.0153986 0)
(0.0079314 -0.0134472 0)
(0.0195256 -0.0317722 0)
(0.0335744 -0.0427778 0)
(0.0493267 -0.0488296 0)
(0.0660811 -0.0516118 0)
(0.083321 -0.0522998 0)
(0.100665 -0.0516708 0)
(0.11784 -0.0502354 0)
(0.134654 -0.0483266 0)
(0.150975 -0.0461606 0)
(0.166712 -0.0438765 0)
(0.181809 -0.0415621 0)
(0.196229 -0.0392702 0)
(0.209953 -0.0370294 0)
(0.222968 -0.0348508 0)
(0.235266 -0.0327329 0)
(0.246842 -0.0306642 0)
(0.257686 -0.0286246 0)
(0.267784 -0.0265863 0)
(0.277113 -0.0245133 0)
(0.285639 -0.0223616 0)
(0.293314 -0.0200781 0)
(0.300071 -0.0175999 0)
(0.305826 -0.0148535 0)
(0.310468 -0.0117534 0)
(0.313863 -0.00820066 0)
(0.315854 -0.00408112 0)
(0.316257 0.000737736 0)
(0.314873 0.00640928 0)
(0.311482 0.0131052 0)
(0.305849 0.021014 0)
(0.297745 0.0303328 0)
(0.286966 0.0412431 0)
(0.273365 0.0538608 0)
(0.25688 0.0681448 0)
(0.237552 0.0837325 0)
(0.21554 0.0996952 0)
(0.191047 0.114173 0)
(0.16445 0.124152 0)
(0.137061 0.124453 0)
(0.108316 0.106973 0)
(0.0778091 0.0653674 0)
(0.036867 -0.0112057 0)
(0.0231757 -0.142338 0)
(0.00240735 0.0607413 0)
(0.00807152 0.0125598 0)
(0.017337 -0.0183227 0)
(0.0297731 -0.0379205 0)
(0.0439603 -0.0497899 0)
(0.0593504 -0.0563866 0)
(0.0754574 -0.0594729 0)
(0.0919211 -0.0602823 0)
(0.108463 -0.0596397 0)
(0.124868 -0.0580911 0)
(0.140974 -0.0559968 0)
(0.156657 -0.053594 0)
(0.171831 -0.0510379 0)
(0.186431 -0.0484279 0)
(0.200416 -0.045825 0)
(0.213755 -0.0432632 0)
(0.226428 -0.0407571 0)
(0.238418 -0.0383064 0)
(0.249712 -0.0358994 0)
(0.260293 -0.0335144 0)
(0.270142 -0.0311207 0)
(0.279231 -0.0286782 0)
(0.287525 -0.026137 0)
(0.294974 -0.0234369 0)
(0.301513 -0.0205065 0)
(0.307058 -0.0172627 0)
(0.311507 -0.0136092 0)
(0.314732 -0.00943625 0)
(0.316588 -0.00461937 0)
(0.316909 0.000982864 0)
(0.315519 0.00753056 0)
(0.312228 0.0152 0)
(0.306852 0.0241787 0)
(0.299218 0.0346532 0)
(0.289198 0.0467816 0)
(0.276727 0.0606437 0)
(0.261832 0.076151 0)
(0.244643 0.0928913 0)
(0.225381 0.109895 0)
(0.20428 0.12528 0)
(0.181541 0.135917 0)
(0.157553 0.136738 0)
(0.131346 0.12042 0)
(0.101705 0.0811347 0)
(0.0609962 0.00617335 0)
(0.035739 -0.125251 0)
(0.00610585 0.0567706 0)
(0.0142843 0.00856581 0)
(0.0254761 -0.0238166 0)
(0.0388869 -0.04433 0)
(0.0533389 -0.0567768 0)
(0.0684868 -0.0637308 0)
(0.0840544 -0.0670192 0)
(0.0998365 -0.0679099 0)
(0.115656 -0.0672514 0)
(0.131356 -0.0656081 0)
(0.146804 -0.0633567 0)
(0.161889 -0.0607489 0)
(0.176526 -0.0579519 0)
(0.19065 -0.0550749 0)
(0.204211 -0.0521861 0)
(0.217172 -0.0493247 0)
(0.229504 -0.0465083 0)
(0.241185 -0.0437383 0)
(0.252192 -0.0410033 0)
(0.262505 -0.0382807 0)
(0.272098 -0.0355373 0)
(0.280941 -0.0327294 0)
(0.288997 -0.0298022 0)
(0.296216 -0.0266893 0)
(0.302534 -0.0233116 0)
(0.307872 -0.0195771 0)
(0.312132 -0.0153804 0)
(0.315197 -0.0106025 0)
(0.316933 -0.00511059 0)
(0.317192 0.00124324 0)
(0.31582 0.00862238 0)
(0.31266 0.0172029 0)
(0.307565 0.0271658 0)
(0.300415 0.0386822 0)
(0.291134 0.0518832 0)
(0.279718 0.0668105 0)
(0.266251 0.0833307 0)
(0.250905 0.100991 0)
(0.233913 0.1188 0)
(0.215478 0.134904 0)
(0.195628 0.146217 0)
(0.174147 0.147917 0)
(0.149455 0.133362 0)
(0.119879 0.0969465 0)
(0.0790306 0.0261669 0)
(0.0446512 -0.100879 0)
(0.00802761 0.0511511 0)
(0.0191131 0.00326114 0)
(0.0324714 -0.0300301 0)
(0.0469741 -0.0510624 0)
(0.0617823 -0.063792 0)
(0.0767732 -0.0709121 0)
(0.0918842 -0.0742971 0)
(0.107064 -0.075224 0)
(0.122233 -0.0745415 0)
(0.137292 -0.072816 0)
(0.152133 -0.0704301 0)
(0.166661 -0.0676436 0)
(0.180794 -0.0646324 0)
(0.194463 -0.0615131 0)
(0.207616 -0.0583603 0)
(0.220209 -0.0552178 0)
(0.232207 -0.0521063 0)
(0.243579 -0.0490291 0)
(0.254299 -0.0459754 0)
(0.264339 -0.0429219 0)
(0.273672 -0.0398339 0)
(0.282264 -0.0366649 0)
(0.290077 -0.0333557 0)
(0.297061 -0.0298345 0)
(0.303157 -0.0260154 0)
(0.308289 -0.0217988 0)
(0.312365 -0.017071 0)
(0.315279 -0.0117054 0)
(0.316908 -0.00556265 0)
(0.317123 0.00150889 0)
(0.315791 0.00967328 0)
(0.312783 0.0191028 0)
(0.307988 0.0299688 0)
(0.301325 0.0424238 0)
(0.29276 0.0565708 0)
(0.282333 0.0724149 0)
(0.270158 0.0897834 0)
(0.256424 0.108193 0)
(0.241348 0.126654 0)
(0.225071 0.143375 0)
(0.207465 0.155421 0)
(0.187906 0.158322 0)
(0.164347 0.146096 0)
(0.13445 0.113037 0)
(0.0928881 0.0477873 0)
(0.0509726 -0.0712286 0)
(0.00893126 0.0443411 0)
(0.0229678 -0.00337282 0)
(0.0385264 -0.0370251 0)
(0.05417 -0.0581554 0)
(0.0693717 -0.0708675 0)
(0.0842489 -0.077963 0)
(0.0989577 -0.0813404 0)
(0.113598 -0.082258 0)
(0.128181 -0.0815412 0)
(0.142657 -0.0797421 0)
(0.156943 -0.0772394 0)
(0.170956 -0.074296 0)
(0.184617 -0.0710929 0)
(0.197858 -0.0677525 0)
(0.210621 -0.0643545 0)
(0.222858 -0.0609468 0)
(0.234529 -0.0575534 0)
(0.245596 -0.0541795 0)
(0.256029 -0.0508149 0)
(0.265795 -0.0474365 0)
(0.274864 -0.0440086 0)
(0.2832 -0.0404824 0)
(0.290765 -0.0367955 0)
(0.297512 -0.0328712 0)
(0.303383 -0.0286178 0)
(0.308309 -0.023929 0)
(0.312206 -0.018684 0)
(0.314975 -0.0127496 0)
(0.316509 -0.00598224 0)
(0.316693 0.0017716 0)
(0.315418 0.0106743 0)
(0.31258 0.0208918 0)
(0.308097 0.0325837 0)
(0.30192 0.0458831 0)
(0.29405 0.060865 0)
(0.284552 0.0775011 0)
(0.273559 0.0955864 0)
(0.261258 0.11462 0)
(0.247836 0.133628 0)
(0.233366 0.150914 0)
(0.217588 0.163754 0)
(0.199597 0.168102 0)
(0.177045 0.15862 0)
(0.146814 0.12978 0)
(0.104072 0.0711647 0)
(0.0555088 -0.0379174 0)
(0.00951337 0.0366132 0)
(0.0262499 -0.0112543 0)
(0.0438817 -0.044798 0)
(0.0606286 -0.0656115 0)
(0.0761977 -0.0780097 0)
(0.0909585 -0.0848977 0)
(0.105289 -0.0881711 0)
(0.119435 -0.0890388 0)
(0.133487 -0.088278 0)
(0.147434 -0.0864117 0)
(0.161215 -0.0838068 0)
(0.174754 -0.0807241 0)
(0.187978 -0.0773476 0)
(0.200816 -0.0738037 0)
(0.213208 -0.0701763 0)
(0.225103 -0.066517 0)
(0.236455 -0.0628527 0)
(0.247223 -0.0591906 0)
(0.25737 -0.0555217 0)
(0.266861 -0.0518234 0)
(0.275662 -0.0480596 0)
(0.283738 -0.04418 0)
(0.29105 -0.0401196 0)
(0.297555 -0.0357979 0)
(0.303198 -0.0311183 0)
(0.307918 -0.0259685 0)
(0.311637 -0.0202216 0)
(0.314268 -0.0137391 0)
(0.315715 -0.00637476 0)
(0.31588 0.00202482 0)
(0.314674 0.0116184 0)
(0.312018 0.0225642 0)
(0.307855 0.0350088 0)
(0.302163 0.0490659 0)
(0.294965 0.0647842 0)
(0.286345 0.0821058 0)
(0.276445 0.1008 0)
(0.26544 0.120359 0)
(0.253484 0.139842 0)
(0.240587 0.157664 0)
(0.226385 0.171353 0)
(0.209784 0.177327 0)
(0.188245 0.170926 0)
(0.157894 0.1471 0)
(0.113959 0.0964381 0)
(0.0598426 -0.00111687 0)
(0.0101342 0.028082 0)
(0.0292551 -0.0202551 0)
(0.0487681 -0.0532929 0)
(0.066507 -0.0733976 0)
(0.0823541 -0.0851992 0)
(0.0969494 -0.0917126 0)
(0.110897 -0.0948004 0)
(0.124576 -0.0955867 0)
(0.138141 -0.094776 0)
(0.151608 -0.0928486 0)
(0.16493 -0.090153 0)
(0.178036 -0.0869454 0)
(0.190854 -0.0834104 0)
(0.203315 -0.0796774 0)
(0.215357 -0.0758335 0)
(0.226923 -0.0719336 0)
(0.237966 -0.0680075 0)
(0.24844 -0.0640641 0)
(0.258303 -0.0600959 0)
(0.267518 -0.0560814 0)
(0.276048 -0.0519847 0)
(0.283859 -0.0477549 0)
(0.290912 -0.0433253 0)
(0.297169 -0.0386123 0)
(0.30258 -0.0335154 0)
(0.30709 -0.0279171 0)
(0.310632 -0.0216851 0)
(0.313127 -0.0146767 0)
(0.314493 -0.00674427 0)
(0.314648 0.00226354 0)
(0.313521 0.0125004 0)
(0.311056 0.0241158 0)
(0.307218 0.0372432 0)
(0.302006 0.0519778 0)
(0.295461 0.0683442 0)
(0.287678 0.0862584 0)
(0.278801 0.105472 0)
(0.26899 0.125477 0)
(0.258366 0.145376 0)
(0.246894 0.163713 0)
(0.234135 0.178282 0)
(0.21889 0.185997 0)
(0.198524 0.182926 0)
(0.168543 0.164734 0)
(0.124044 0.123155 0)
(0.0648714 0.0391487 0)
(0.0108949 0.0187454 0)
(0.0321783 -0.0302602 0)
(0.0533903 -0.0624311 0)
(0.0719555 -0.0814523 0)
(0.0879313 -0.0923917 0)
(0.102268 -0.0983869 0)
(0.115802 -0.101229 0)
(0.129027 -0.101917 0)
(0.142141 -0.101056 0)
(0.155172 -0.0990741 0)
(0.168075 -0.0962979 0)
(0.180783 -0.0929768 0)
(0.193226 -0.0892953 0)
(0.205334 -0.0853844 0)
(0.217044 -0.0813342 0)
(0.228296 -0.0772024 0)
(0.239038 -0.0730213 0)
(0.249223 -0.0688017 0)
(0.258804 -0.0645379 0)
(0.267741 -0.0602095 0)
(0.275997 -0.055782 0)
(0.283537 -0.0512045 0)
(0.290325 -0.0464095 0)
(0.296325 -0.0413114 0)
(0.301497 -0.0358067 0)
(0.305793 -0.0297736 0)
(0.309155 -0.0230747 0)
(0.311515 -0.0155638 0)
(0.312803 -0.00709337 0)
(0.312952 0.00248438 0)
(0.311911 0.0133167 0)
(0.309642 0.025544 0)
(0.306133 0.0392869 0)
(0.301398 0.0546242 0)
(0.295489 0.071558 0)
(0.28851 0.0899823 0)
(0.280602 0.109636 0)
(0.271911 0.13002 0)
(0.262531 0.150284 0)
(0.252393 0.169105 0)
(0.241033 0.184554 0)
(0.227221 0.194044 0)
(0.208344 0.194429 0)
(0.179491 0.182316 0)
(0.13569 0.150949 0)
(0.0716914 0.0834633 0)
(0.011793 0.00856356 0)
(0.0351577 -0.0411971 0)
(0.0579376 -0.0721333 0)
(0.0771148 -0.08969 0)
(0.0930108 -0.0995182 0)
(0.106958 -0.104883 0)
(0.120027 -0.107448 0)
(0.1328 -0.108037 0)
(0.145491 -0.107135 0)
(0.158121 -0.105107 0)
(0.170641 -0.102259 0)
(0.182983 -0.0988342 0)
(0.195077 -0.0950156 0)
(0.206854 -0.090936 0)
(0.218247 -0.0866874 0)
(0.229196 -0.0823304 0)
(0.239646 -0.0778993 0)
(0.249545 -0.0734073 0)
(0.258846 -0.0688497 0)
(0.267503 -0.0642085 0)
(0.27548 -0.0594509 0)
(0.282741 -0.0545273 0)
(0.289255 -0.0493702 0)
(0.29499 -0.043893 0)
(0.299913 -0.0379902 0)
(0.303986 -0.0315366 0)
(0.307162 -0.02439 0)
(0.309385 -0.016401 0)
(0.310595 -0.00742334 0)
(0.31074 0.00268566 0)
(0.309787 0.0140658 0)
(0.307719 0.0268481 0)
(0.30454 0.0411418 0)
(0.300278 0.0570115 0)
(0.294993 0.0744389 0)
(0.288794 0.0932987 0)
(0.281816 0.113323 0)
(0.274192 0.134023 0)
(0.265998 0.154603 0)
(0.257149 0.173867 0)
(0.247192 0.190151 0)
(0.234961 0.201355 0)
(0.218008 0.20514 0)
(0.191299 0.199286 0)
(0.150231 0.179481 0)
(0.0814767 0.133058 0)
(0.0127937 -0.00259523 0)
(0.0383382 -0.0530206 0)
(0.062615 -0.0823074 0)
(0.0821172 -0.0979866 0)
(0.0976604 -0.106475 0)
(0.111055 -0.111141 0)
(0.123596 -0.113434 0)
(0.135914 -0.113946 0)
(0.148203 -0.113019 0)
(0.160461 -0.110957 0)
(0.172625 -0.108046 0)
(0.184626 -0.104525 0)
(0.196392 -0.100577 0)
(0.207854 -0.0963359 0)
(0.218944 -0.0918955 0)
(0.229599 -0.0873184 0)
(0.239761 -0.0826416 0)
(0.249377 -0.0778796 0)
(0.258396 -0.0730295 0)
(0.266771 -0.0680755 0)
(0.274462 -0.0629878 0)
(0.281436 -0.0577189 0)
(0.287664 -0.0522024 0)
(0.293121 -0.046352 0)
(0.297782 -0.0400613 0)
(0.301621 -0.0332024 0)
(0.304603 -0.0256286 0)
(0.306682 -0.017187 0)
(0.307809 -0.00773365 0)
(0.307948 0.00286731 0)
(0.307083 0.0147473 0)
(0.305216 0.0280279 0)
(0.302369 0.0428092 0)
(0.298578 0.0591442 0)
(0.293909 0.0769959 0)
(0.288471 0.0962222 0)
(0.282398 0.116551 0)
(0.275807 0.137511 0)
(0.268762 0.158354 0)
(0.261179 0.178002 0)
(0.252658 0.195031 0)
(0.242175 0.20778 0)
(0.227621 0.214673 0)
(0.204296 0.214809 0)
(0.168922 0.20804 0)
(0.0954947 0.189624 0)
(0.013783 -0.0145294 0)
(0.0420325 -0.0656572 0)
(0.0676869 -0.0928145 0)
(0.0870785 -0.10618 0)
(0.101926 -0.113151 0)
(0.114593 -0.117111 0)
(0.126547 -0.119177 0)
(0.138406 -0.119653 0)
(0.150312 -0.118724 0)
(0.162221 -0.116638 0)
(0.174052 -0.113668 0)
(0.18573 -0.110054 0)
(0.197184 -0.105981 0)
(0.208345 -0.101582 0)
(0.219141 -0.0969522 0)
(0.229508 -0.0921576 0)
(0.239387 -0.0872369 0)
(0.248721 -0.0822063 0)
(0.257457 -0.0770639 0)
(0.265545 -0.0717963 0)
(0.272943 -0.0663779 0)
(0.279619 -0.0607643 0)
(0.28555 -0.0548912 0)
(0.290714 -0.048674 0)
(0.295098 -0.0420069 0)
(0.298688 -0.0347604 0)
(0.301463 -0.0267824 0)
(0.303388 -0.0179163 0)
(0.304426 -0.00802131 0)
(0.304553 0.00302999 0)
(0.303772 0.0153592 0)
(0.302104 0.0290786 0)
(0.299588 0.0442816 0)
(0.296267 0.061014 0)
(0.292205 0.0792211 0)
(0.287515 0.0987445 0)
(0.282327 0.119314 0)
(0.276745 0.140474 0)
(0.270821 0.161521 0)
(0.264487 0.181474 0)
(0.257421 0.199108 0)
(0.248814 0.213111 0)
(0.237055 0.222505 0)
(0.218487 0.227536 0)
(0.191284 0.232916 0)
(0.123086 0.261739 0)
(0.0606937 -0.019008 0)
(0.00840844 0.0270343 0)
(-0.123403 0.038735 0)
(-0.246114 0.0349776 0)
(-0.36416 0.0299442 0)
(-0.468798 0.0291558 0)
(-0.566297 0.0314684 0)
(-0.665348 0.0424464 0)
(-0.762439 0.0363334 0)
(-0.874271 0.0257391 0)
(-0.982773 0.0280947 0)
(-1.09139 0.0275187 0)
(-1.19381 0.0259901 0)
(-1.28722 0.0234462 0)
(-1.36876 0.0200623 0)
(-1.43661 0.0162401 0)
(-1.49032 0.0124412 0)
(-1.53062 0.00896984 0)
(-1.55874 0.00587264 0)
(-1.57562 0.00307942 0)
(-1.58178 0.000568961 0)
(-1.57774 -0.00200986 0)
(-1.56535 -0.00428568 0)
(-1.54402 -0.0066696 0)
(-1.51333 -0.00924041 0)
(-1.47267 -0.0120461 0)
(-1.42141 -0.0151129 0)
(-1.35898 -0.0184452 0)
(-1.2849 -0.0220914 0)
(-1.19846 -0.0262335 0)
(-1.09844 -0.0311165 0)
(-0.982868 -0.0370035 0)
(-0.848295 -0.0445423 0)
(-0.690294 -0.054329 0)
(-0.504601 -0.0663049 0)
(-0.302956 -0.0702223 0)
(-0.102495 -0.0457533 0)
(0.00709563 -0.00954453 0)
(-0.00251612 -0.0159703 0)
(-0.0811855 0.065354 0)
(-0.230433 0.0826613 0)
(-0.38075 0.0826835 0)
(-0.525796 0.0758669 0)
(-0.666431 0.0685953 0)
(-0.805098 0.0643609 0)
(-0.937577 0.0625784 0)
(-1.06806 0.067309 0)
(-1.17684 0.0694527 0)
(-1.27477 0.0670769 0)
(-1.35999 0.0627619 0)
(-1.43265 0.0568025 0)
(-1.49238 0.0495986 0)
(-1.53961 0.0415728 0)
(-1.57547 0.0333194 0)
(-1.60146 0.0253931 0)
(-1.61893 0.0181045 0)
(-1.6289 0.0114581 0)
(-1.63206 0.00531377 0)
(-1.6289 -0.000460094 0)
(-1.61946 -0.00626198 0)
(-1.60193 -0.0119541 0)
(-1.57612 -0.0178983 0)
(-1.54153 -0.024217 0)
(-1.49759 -0.0309579 0)
(-1.44375 -0.038109 0)
(-1.37952 -0.0456279 0)
(-1.30451 -0.0535091 0)
(-1.21824 -0.0619036 0)
(-1.11978 -0.0712641 0)
(-1.00731 -0.0822901 0)
(-0.87787 -0.0956503 0)
(-0.727862 -0.111197 0)
(-0.554302 -0.12586 0)
(-0.360964 -0.129812 0)
(-0.166165 -0.108012 0)
(-0.0289023 -0.0261804 0)
(-0.0484234 0.0167143 0)
(-0.148889 0.119023 0)
(-0.296523 0.144961 0)
(-0.443085 0.145221 0)
(-0.587457 0.138561 0)
(-0.728593 0.132187 0)
(-0.863219 0.127588 0)
(-0.986103 0.123551 0)
(-1.09572 0.117651 0)
(-1.19283 0.110786 0)
(-1.28017 0.103425 0)
(-1.3569 0.0942038 0)
(-1.42376 0.0833522 0)
(-1.48066 0.071288 0)
(-1.52762 0.0586307 0)
(-1.56487 0.0461253 0)
(-1.59289 0.0343804 0)
(-1.61232 0.0236754 0)
(-1.62379 0.0139294 0)
(-1.62779 0.00485611 0)
(-1.62459 -0.00389267 0)
(-1.61403 -0.0125691 0)
(-1.59572 -0.0215117 0)
(-1.5694 -0.0308634 0)
(-1.53464 -0.0407685 0)
(-1.49088 -0.0512925 0)
(-1.43761 -0.0624144 0)
(-1.37438 -0.0740506 0)
(-1.30089 -0.086179 0)
(-1.21685 -0.0990476 0)
(-1.12158 -0.113334 0)
(-1.0136 -0.130099 0)
(-0.890401 -0.150405 0)
(-0.748828 -0.174172 0)
(-0.58594 -0.197745 0)
(-0.400575 -0.208989 0)
(-0.205429 -0.183834 0)
(-0.0499064 -0.073902 0)
(-0.0764369 0.0660615 0)
(-0.191647 0.177025 0)
(-0.334912 0.206737 0)
(-0.474367 0.206337 0)
(-0.61023 0.198032 0)
(-0.741815 0.1893 0)
(-0.865513 0.18104 0)
(-0.977955 0.17196 0)
(-1.0798 0.160882 0)
(-1.17328 0.149281 0)
(-1.25865 0.137711 0)
(-1.3354 0.124552 0)
(-1.40349 0.109757 0)
(-1.46234 0.0936431 0)
(-1.51145 0.076873 0)
(-1.55059 0.0603079 0)
(-1.58001 0.0446883 0)
(-1.60032 0.0303824 0)
(-1.61228 0.0173033 0)
(-1.61651 0.00508307 0)
(-1.61335 -0.00674807 0)
(-1.60283 -0.0185326 0)
(-1.58478 -0.0306647 0)
(-1.55893 -0.0433597 0)
(-1.52485 -0.0567991 0)
(-1.48202 -0.071067 0)
(-1.42989 -0.0861325 0)
(-1.36804 -0.101864 0)
(-1.29624 -0.118191 0)
(-1.21436 -0.135422 0)
(-1.12196 -0.154472 0)
(-1.01782 -0.176803 0)
(-0.899631 -0.203944 0)
(-0.764192 -0.23619 0)
(-0.607717 -0.269745 0)
(-0.426594 -0.290917 0)
(-0.229487 -0.266193 0)
(-0.0617437 -0.128865 0)
(-0.0922697 0.124945 0)
(-0.216305 0.236008 0)
(-0.355178 0.265336 0)
(-0.488334 0.263385 0)
(-0.616034 0.252951 0)
(-0.738541 0.2412 0)
(-0.853768 0.228947 0)
(-0.960396 0.215739 0)
(-1.05925 0.201522 0)
(-1.15131 0.186952 0)
(-1.23623 0.171958 0)
(-1.31351 0.15534 0)
(-1.3827 0.136868 0)
(-1.44294 0.116794 0)
(-1.49342 0.0958432 0)
(-1.53369 0.0750535 0)
(-1.56389 0.0553736 0)
(-1.58473 0.0373167 0)
(-1.59708 0.0208069 0)
(-1.60172 0.00538704 0)
(-1.59907 -0.00953692 0)
(-1.58922 -0.0244412 0)
(-1.57204 -0.0397723 0)
(-1.54725 -0.0558233 0)
(-1.51442 -0.0728231 0)
(-1.47301 -0.0908817 0)
(-1.42242 -0.109959 0)
(-1.36218 -0.129859 0)
(-1.29212 -0.150428 0)
(-1.21224 -0.171993 0)
(-1.12235 -0.195705 0)
(-1.02138 -0.223444 0)
(-0.907064 -0.257252 0)
(-0.775827 -0.297847 0)
(-0.62292 -0.341281 0)
(-0.443301 -0.372124 0)
(-0.243703 -0.350487 0)
(-0.068745 -0.188402 0)
(-0.100589 0.189844 0)
(-0.229118 0.295413 0)
(-0.364083 0.321692 0)
(-0.492097 0.317348 0)
(-0.613324 0.304555 0)
(-0.728937 0.290107 0)
(-0.838222 0.274793 0)
(-0.940885 0.258508 0)
(-1.03741 0.241571 0)
(-1.12798 0.224325 0)
(-1.21212 0.20631 0)
(-1.28934 0.18649 0)
(-1.35901 0.164492 0)
(-1.42007 0.140506 0)
(-1.47146 0.115326 0)
(-1.51253 0.0902005 0)
(-1.54335 0.0663475 0)
(-1.56469 0.0444737 0)
(-1.57761 0.0245273 0)
(-1.583 0.00594488 0)
(-1.58134 -0.0120167 0)
(-1.57274 -0.0299711 0)
(-1.55704 -0.0484389 0)
(-1.53393 -0.0677892 0)
(-1.50297 -0.0883032 0)
(-1.46353 -0.110125 0)
(-1.41495 -0.133212 0)
(-1.35665 -0.157287 0)
(-1.28843 -0.182059 0)
(-1.21049 -0.207824 0)
(-1.12282 -0.235962 0)
(-1.0245 -0.268813 0)
(-0.913187 -0.309019 0)
(-0.784831 -0.357894 0)
(-0.633792 -0.411594 0)
(-0.454052 -0.45321 0)
(-0.251332 -0.436455 0)
(-0.0715119 -0.251963 0)
(-0.104429 0.257871 0)
(-0.234494 0.354793 0)
(-0.365934 0.376444 0)
(-0.489522 0.369079 0)
(-0.605483 0.353699 0)
(-0.71565 0.336774 0)
(-0.820179 0.318977 0)
(-0.91926 0.300228 0)
(-1.01313 0.280892 0)
(-1.10164 0.261166 0)
(-1.18435 0.240427 0)
(-1.26082 0.217661 0)
(-1.33033 0.192335 0)
(-1.3917 0.164548 0)
(-1.44365 0.135155 0)
(-1.48529 0.105645 0)
(-1.51663 0.0775713 0)
(-1.53854 0.0518901 0)
(-1.55226 0.0285859 0)
(-1.55882 0.00696048 0)
(-1.55871 -0.0139145 0)
(-1.552 -0.0348015 0)
(-1.53849 -0.0563051 0)
(-1.51779 -0.0788688 0)
(-1.48941 -0.102833 0)
(-1.45266 -0.12839 0)
(-1.4067 -0.155506 0)
(-1.35079 -0.183809 0)
(-1.28469 -0.212808 0)
(-1.20875 -0.242707 0)
(-1.12322 -0.275118 0)
(-1.02729 -0.312915 0)
(-0.918493 -0.359471 0)
(-0.792266 -0.416887 0)
(-0.642093 -0.481581 0)
(-0.461147 -0.534979 0)
(-0.254792 -0.523834 0)
(-0.0715922 -0.316892 0)
(-0.105696 0.327024 0)
(-0.235336 0.413616 0)
(-0.363298 0.42971 0)
(-0.482622 0.418886 0)
(-0.593772 0.400752 0)
(-0.699035 0.381428 0)
(-0.799083 0.36144 0)
(-0.894357 0.34058 0)
(-0.984975 0.31912 0)
(-1.07069 0.297137 0)
(-1.15116 0.273949 0)
(-1.22603 0.248509 0)
(-1.29462 0.220102 0)
(-1.35568 0.18869 0)
(-1.40771 0.155172 0)
(-1.44963 0.121297 0)
(-1.48137 0.0890294 0)
(-1.50393 0.0596328 0)
(-1.51874 0.0331347 0)
(-1.52694 0.00866138 0)
(-1.52903 -0.0149422 0)
(-1.52497 -0.0386084 0)
(-1.51447 -0.0630248 0)
(-1.49705 -0.0887069 0)
(-1.47215 -0.116062 0)
(-1.43895 -0.145347 0)
(-1.39644 -0.176563 0)
(-1.34359 -0.20923 0)
(-1.28008 -0.242581 0)
(-1.20643 -0.276636 0)
(-1.12319 -0.313259 0)
(-1.0297 -0.355947 0)
(-0.923321 -0.408938 0)
(-0.798974 -0.475298 0)
(-0.649199 -0.551782 0)
(-0.46638 -0.617824 0)
(-0.256029 -0.612482 0)
(-0.0703415 -0.382164 0)
(-0.105599 0.396129 0)
(-0.233504 0.471415 0)
(-0.357645 0.481379 0)
(-0.472357 0.466755 0)
(-0.578508 0.445758 0)
(-0.678737 0.424081 0)
(-0.77403 0.402072 0)
(-0.864954 0.379308 0)
(-0.951548 0.35591 0)
(-1.03354 0.331857 0)
(-1.11071 0.306468 0)
(-1.18291 0.278638 0)
(-1.24957 0.247441 0)
(-1.30946 0.212653 0)
(-1.36094 0.175182 0)
(-1.40274 0.137051 0)
(-1.43472 0.100708 0)
(-1.45801 0.067785 0)
(-1.47423 0.0383519 0)
(-1.48462 0.0113074 0)
(-1.48962 -0.014777 0)
(-1.48907 -0.0410283 0)
(-1.48252 -0.06821 0)
(-1.46939 -0.0969016 0)
(-1.44902 -0.127587 0)
(-1.42045 -0.160608 0)
(-1.38242 -0.196036 0)
(-1.33355 -0.233281 0)
(-1.27333 -0.271201 0)
(-1.20251 -0.309506 0)
(-1.12202 -0.350331 0)
(-1.03134 -0.397901 0)
(-0.927728 -0.45746 0)
(-0.805531 -0.533221 0)
(-0.656213 -0.622366 0)
(-0.47117 -0.701959 0)
(-0.256326 -0.702366 0)
(-0.0685743 -0.447274 0)
(-0.104949 0.4646 0)
(-0.230192 0.527783 0)
(-0.349774 0.531197 0)
(-0.459106 0.512465 0)
(-0.559561 0.488531 0)
(-0.654135 0.464551 0)
(-0.744013 0.440641 0)
(-0.829784 0.416092 0)
(-0.911366 0.390855 0)
(-0.988457 0.364855 0)
(-1.06101 0.33747 0)
(-1.12917 0.307537 0)
(-1.19263 0.273896 0)
(-1.25027 0.236071 0)
(-1.30042 0.194936 0)
(-1.34162 0.152772 0)
(-1.37363 0.112583 0)
(-1.39769 0.0764302 0)
(-1.41562 0.0444255 0)
(-1.42872 0.015177 0)
(-1.43735 -0.0130686 0)
(-1.44118 -0.0416581 0)
(-1.43959 -0.0714194 0)
(-1.43187 -0.102984 0)
(-1.41724 -0.13692 0)
(-1.39459 -0.173682 0)
(-1.36233 -0.213464 0)
(-1.31861 -0.255572 0)
(-1.26262 -0.298361 0)
(-1.19544 -0.34106 0)
(-1.11848 -0.386096 0)
(-1.03142 -0.438548 0)
(-0.931393 -0.504811 0)
(-0.8122 -0.590467 0)
(-0.663976 -0.693294 0)
(-0.476606 -0.787585 0)
(-0.25638 -0.793652 0)
(-0.0664384 -0.512021 0)
(-0.10436 0.532211 0)
(-0.226213 0.582298 0)
(-0.340085 0.578761 0)
(-0.442899 0.555618 0)
(-0.536531 0.528699 0)
(-0.624423 0.502483 0)
(-0.707889 0.476774 0)
(-0.787448 0.450502 0)
(-0.862809 0.423447 0)
(-0.933597 0.395542 0)
(-0.999968 0.366318 0)
(-1.06247 0.334582 0)
(-1.12124 0.298913 0)
(-1.17544 0.258512 0)
(-1.22342 0.214147 0)
(-1.26351 0.168307 0)
(-1.29531 0.12461 0)
(-1.32013 0.0856296 0)
(-1.33995 0.0515148 0)
(-1.35614 0.0205189 0)
(-1.36896 -0.00948897 0)
(-1.37791 -0.0400991 0)
(-1.38219 -0.072193 0)
(-1.38099 -0.106437 0)
(-1.37337 -0.1435 0)
(-1.35809 -0.18398 0)
(-1.33317 -0.228268 0)
(-1.29605 -0.275592 0)
(-1.24552 -0.323644 0)
(-1.18305 -0.37091 0)
(-1.11076 -0.420147 0)
(-1.02855 -0.477451 0)
(-0.933497 -0.550526 0)
(-0.818842 -0.646602 0)
(-0.673058 -0.764373 0)
(-0.483613 -0.874982 0)
(-0.256671 -0.886787 0)
(-0.0635542 -0.576212 0)
(-0.104384 0.599049 0)
(-0.222215 0.634457 0)
(-0.328724 0.623508 0)
(-0.423514 0.595652 0)
(-0.508791 0.56572 0)
(-0.588586 0.537369 0)
(-0.664317 0.50997 0)
(-0.736374 0.482004 0)
(-0.804143 0.453082 0)
(-0.867085 0.423237 0)
(-0.925566 0.392287 0)
(-0.980689 0.359073 0)
(-1.03323 0.321892 0)
(-1.08278 0.27953 0)
(-1.12781 0.232537 0)
(-1.16638 0.183506 0)
(-1.19773 0.136727 0)
(-1.22318 0.0953935 0)
(-1.24488 0.0596997 0)
(-1.26424 0.0274812 0)
(-1.28144 -0.0038166 0)
(-1.29586 -0.0360448 0)
(-1.30661 -0.0701292 0)
(-1.31278 -0.106759 0)
(-1.31338 -0.146727 0)
(-1.307 -0.190824 0)
(-1.29119 -0.23975 0)
(-1.26245 -0.292717 0)
(-1.21884 -0.34653 0)
(-1.16241 -0.398538 0)
(-1.09628 -0.451895 0)
(-1.02066 -0.513946 0)
(-0.932578 -0.593865 0)
(-0.824804 -0.700873 0)
(-0.683768 -0.835148 0)
(-0.493226 -0.964441 0)
(-0.258066 -0.982591 0)
(-0.0594089 -0.639672 0)
(-0.105756 0.665348 0)
(-0.21885 0.683626 0)
(-0.315645 0.664684 0)
(-0.400494 0.631836 0)
(-0.475453 0.598887 0)
(-0.545327 0.568553 0)
(-0.611701 0.539624 0)
(-0.674831 0.510005 0)
(-0.733633 0.479131 0)
(-0.78724 0.447244 0)
(-0.836188 0.414647 0)
(-0.882274 0.380323 0)
(-0.92712 0.342265 0)
(-0.970958 0.298731 0)
(-1.01243 0.249888 0)
(-1.04917 0.198255 0)
(-1.07985 0.148858 0)
(-1.10568 0.105669 0)
(-1.129 0.0689444 0)
(-1.15124 0.0360467 0)
(-1.17251 0.00396879 0)
(-1.19215 -0.0293961 0)
(-1.20931 -0.0650072 0)
(-1.22317 -0.103571 0)
(-1.23277 -0.146048 0)
(-1.23665 -0.193488 0)
(-1.2319 -0.247095 0)
(-1.21363 -0.306182 0)
(-1.17869 -0.366382 0)
(-1.12982 -0.423288 0)
(-1.07168 -0.480566 0)
(-1.00486 -0.547112 0)
(-0.926363 -0.633717 0)
(-0.828727 -0.751993 0)
(-0.696074 -0.904512 0)
(-0.506815 -1.0558 0)
(-0.26249 -1.08213 0)
(-0.0540733 -0.702646 0)
(-0.109052 0.732061 0)
(-0.216824 0.728976 0)
(-0.30058 0.701298 0)
(-0.373075 0.663259 0)
(-0.43528 0.627319 0)
(-0.493006 0.595243 0)
(-0.548194 0.565068 0)
(-0.601008 0.533932 0)
(-0.649702 0.50103 0)
(-0.692793 0.466945 0)
(-0.730837 0.432735 0)
(-0.766435 0.39771 0)
(-0.802301 0.359535 0)
(-0.839534 0.315789 0)
(-0.877063 0.26603 0)
(-0.911859 0.212436 0)
(-0.941661 0.160854 0)
(-0.967488 0.116271 0)
(-0.991892 0.0790343 0)