/*--------------------------------*- C++ -*----------------------------------*\
  =========                 |
  \\      /  F ield         | OpenFOAM: The Open Source CFD Toolbox
   \\    /   O peration     | Website:  https://openfoam.org
    \\  /    A nd           | Version:  7
     \\/     M anipulation  |
\*---------------------------------------------------------------------------*/
FoamFile
{
    version     2.0;
    format      ascii;
    class       surfaceScalarField;
    location    "0.25";
    object      alphaPhi0.water;
}
// * * * * * * * * * * * * * * * * * * * * * * * * * * * * * * * * * * * * * //

dimensions      [0 3 -1 0 0 0 0];

internalField   nonuniform List<scalar> 
17936
(
-1.51329e-06
1.51329e-06
-9.99729e-07
-5.13556e-07
4.64004e-07
-1.46373e-06
2.21633e-06
-1.75233e-06
4.0197e-06
-1.80337e-06
5.76734e-06
-1.74764e-06
7.43042e-06
-1.66308e-06
9.01022e-06
-1.57979e-06
1.05186e-05
-1.5084e-06
1.19707e-05
-1.45211e-06
1.33815e-05
-1.41076e-06
1.47643e-05
-1.38278e-06
1.61304e-05
-1.36617e-06
1.74894e-05
-1.35893e-06
1.88485e-05
-1.3591e-06
2.02133e-05
-1.36482e-06
2.15875e-05
-1.37425e-06
2.29731e-05
-1.38558e-06
2.43701e-05
-1.39698e-06
2.57766e-05
-1.40654e-06
2.71889e-05
-1.41224e-06
2.86008e-05
-1.41193e-06
3.00041e-05
-1.40332e-06
3.1388e-05
-1.38389e-06
3.27389e-05
-1.3509e-06
3.40403e-05
-1.30136e-06
3.52723e-05
-1.23196e-06
3.64112e-05
-1.13898e-06
3.74294e-05
-1.01815e-06
3.82937e-05
-8.643e-07
3.89639e-05
-6.70174e-07
3.93883e-05
-4.24449e-07
3.94778e-05
-8.95348e-08
3.90861e-05
3.91703e-07
3.80712e-05
1.01491e-06
3.62734e-05
1.79782e-06
3.34859e-05
2.78757e-06
2.94513e-05
4.03452e-06
2.39234e-05
5.52789e-06
1.68222e-05
7.10122e-06
8.50025e-06
8.32196e-06
-4.90667e-09
8.5052e-06
-6.32499e-06
7.51426e-06
-1.07212e-05
4.25594e-06
-9.68456e-06
-1.17421e-06
-1.15806e-05
-5.11195e-07
2.02448e-06
3.4078e-07
-1.36553e-06
1.74655e-06
-2.8695e-06
3.39742e-06
-3.40321e-06
5.10065e-06
-3.5066e-06
6.77818e-06
-3.42516e-06
8.3993e-06
-3.28421e-06
9.95884e-06
-3.13934e-06
1.14634e-05
-3.01295e-06
1.29239e-05
-2.91264e-06
1.43523e-05
-2.83913e-06
1.57597e-05
-2.79014e-06
1.71558e-05
-2.7623e-06
1.85488e-05
-2.75194e-06
1.99451e-05
-2.75539e-06
2.13493e-05
-2.76905e-06
2.27645e-05
-2.7894e-06
2.41918e-05
-2.81288e-06
2.56307e-05
-2.8359e-06
2.70789e-05
-2.85471e-06
2.8532e-05
-2.86535e-06
2.99837e-05
-2.86363e-06
3.14254e-05
-2.84502e-06
3.28461e-05
-2.80465e-06
3.42324e-05
-2.73716e-06
3.55678e-05
-2.63673e-06
3.68327e-05
-2.4969e-06
3.80042e-05
-2.31045e-06
3.90551e-05
-2.06904e-06
3.99534e-05
-1.76267e-06
4.06618e-05
-1.3786e-06
4.11371e-05
-8.99735e-07
4.13502e-05
-3.02588e-07
4.12819e-05
4.60004e-07
4.08616e-05
1.43523e-06
3.99751e-05
2.68431e-06
3.84704e-05
4.29225e-06
3.61311e-05
6.37386e-06
3.26284e-05
9.03053e-06
2.75114e-05
1.22183e-05
2.03744e-05
1.54589e-05
1.13699e-05
1.75097e-05
2.07253e-06
1.70268e-05
-4.12469e-06
1.17436e-05
-6.10609e-06
3.40604e-07
-1.76082e-05
2.72417e-07
1.75206e-06
1.23825e-06
-2.33137e-06
2.62592e-06
-4.25717e-06
4.19576e-06
-4.97304e-06
5.81561e-06
-5.12646e-06
7.42266e-06
-5.03221e-06
8.98989e-06
-4.85144e-06
1.05107e-05
-4.66017e-06
1.1989e-05
-4.49121e-06
1.34329e-05
-4.35662e-06
1.48522e-05
-4.25843e-06
1.62562e-05
-4.19413e-06
1.76532e-05
-4.1593e-06
1.90502e-05
-4.14891e-06
2.04526e-05
-4.15778e-06
2.18643e-05
-4.18074e-06
2.32875e-05
-4.21266e-06
2.4723e-05
-4.24839e-06
2.61698e-05
-4.28263e-06
2.7625e-05
-4.3099e-06
2.9084e-05
-4.32441e-06
3.05404e-05
-4.31998e-06
3.19853e-05
-4.29e-06
3.3408e-05
-4.22729e-06
3.47949e-05
-4.12407e-06
3.613e-05
-3.97179e-06
3.73941e-05
-3.76105e-06
3.85649e-05
-3.48128e-06
3.96163e-05
-3.12036e-06
4.05175e-05
-2.66392e-06
4.12332e-05
-2.09432e-06
4.17225e-05
-1.38902e-06
4.19402e-05
-5.20263e-07
4.18444e-05
5.55789e-07
4.13822e-05
1.89742e-06
4.04867e-05
3.57982e-06
3.90784e-05
5.70057e-06
3.70673e-05
8.38493e-06
3.43381e-05
1.17598e-05
3.07018e-05
1.58546e-05
2.5825e-05
2.03357e-05
1.93313e-05
2.40034e-05
1.17011e-05
2.46571e-05
4.41538e-06
1.90281e-05
7.46798e-08
4.68225e-06
-1.73893e-05
7.65648e-07
9.86415e-07
1.90036e-06
-3.46608e-06
3.30547e-06
-5.66228e-06
4.83435e-06
-6.50193e-06
6.39714e-06
-6.68925e-06
7.94886e-06
-6.58392e-06
9.46951e-06
-6.37209e-06
1.0954e-05
-6.14462e-06
1.24052e-05
-5.94248e-06
1.38301e-05
-5.78147e-06
1.52366e-05
-5.66491e-06
1.66326e-05
-5.59017e-06
1.80254e-05
-5.55206e-06
1.94208e-05
-5.54433e-06
2.08235e-05
-5.56046e-06
2.22366e-05
-5.59386e-06
2.36619e-05
-5.63794e-06
2.50995e-05
-5.68599e-06
2.6548e-05
-5.73117e-06
2.80044e-05
-5.76631e-06
2.94639e-05
-5.78387e-06
3.09197e-05
-5.7758e-06
3.23632e-05
-5.73346e-06
3.37834e-05
-5.6475e-06
3.51671e-05
-5.50778e-06
3.64985e-05
-5.30319e-06
3.77589e-05
-5.02151e-06
3.89267e-05
-4.64901e-06
3.99763e-05
-4.17002e-06
4.08785e-05
-3.56613e-06
4.15993e-05
-2.81512e-06
4.20996e-05
-1.88932e-06
4.23346e-05
-7.55176e-07
4.22563e-05
6.34075e-07
4.18125e-05
2.34119e-06
4.09461e-05
4.44622e-06
3.95988e-05
7.04792e-06
3.77214e-05
1.02623e-05
3.52824e-05
1.41987e-05
3.22551e-05
1.8882e-05
2.85416e-05
2.40492e-05
2.38358e-05
2.87091e-05
1.78999e-05
3.0593e-05
1.09611e-05
2.5967e-05
4.15544e-06
1.14881e-05
-1.33257e-05
1.0383e-06
-5.18834e-08
2.36437e-06
-4.79215e-06
3.8305e-06
-7.12841e-06
5.355e-06
-8.02643e-06
6.88663e-06
-8.22088e-06
8.39993e-06
-8.09721e-06
9.88424e-06
-7.85641e-06
1.13381e-05
-7.59849e-06
1.27653e-05
-7.36967e-06
1.41721e-05
-7.1883e-06
1.55657e-05
-7.05851e-06
1.69531e-05
-6.9775e-06
1.83403e-05
-6.93928e-06
1.97325e-05
-6.93659e-06
2.11337e-05
-6.96164e-06
2.25464e-05
-7.00656e-06
2.39719e-05
-7.06336e-06
2.54098e-05
-7.12393e-06
2.68585e-05
-7.17991e-06
2.83148e-05
-7.22258e-06
2.97736e-05
-7.24269e-06
3.12282e-05
-7.2304e-06
3.26699e-05
-7.17513e-06
3.40878e-05
-7.06544e-06
3.5469e-05
-6.88892e-06
3.67978e-05
-6.63203e-06
3.80561e-05
-6.27983e-06
3.92227e-05
-5.81563e-06
4.02731e-05
-5.22042e-06
4.1179e-05
-4.47201e-06
4.19078e-05
-3.54389e-06
4.24221e-05
-2.40368e-06
4.26791e-05
-1.01215e-06
4.26314e-05
6.8181e-07
4.22284e-05
2.74415e-06
4.14183e-05
5.25634e-06
4.01527e-05
8.3135e-06
3.83977e-05
1.20174e-05
3.61454e-05
1.64511e-05
3.34137e-05
2.16137e-05
3.02022e-05
2.72607e-05
2.63468e-05
3.25645e-05
2.14361e-05
3.55037e-05
1.49763e-05
3.24268e-05
7.24995e-06
1.92144e-05
-6.16782e-06
1.18804e-06
-1.23993e-06
2.68056e-06
-6.28466e-06
4.22734e-06
-8.6752e-06
5.77259e-06
-9.57167e-06
7.29403e-06
-9.74232e-06
8.78426e-06
-9.58745e-06
1.02427e-05
-9.31486e-06
1.16728e-05
-9.02854e-06
1.30801e-05
-8.77701e-06
1.44714e-05
-8.57961e-06
1.58535e-05
-8.44057e-06
1.72326e-05
-8.35664e-06
1.86143e-05
-8.32101e-06
2.00031e-05
-8.32538e-06
2.14023e-05
-8.36082e-06
2.2814e-05
-8.41823e-06
2.4239e-05
-8.48834e-06
2.56767e-05
-8.5617e-06
2.71254e-05
-8.62854e-06
2.85814e-05
-8.67861e-06
3.00398e-05
-8.70107e-06
3.14937e-05
-8.68433e-06
3.29345e-05
-8.61594e-06
3.43515e-05
-8.48245e-06
3.57319e-05
-8.26927e-06
3.70604e-05
-7.96051e-06
3.83192e-05
-7.53867e-06
3.94878e-05
-6.98422e-06
4.05424e-05
-6.27503e-06
4.14557e-05
-5.38535e-06
4.21965e-05
-4.2847e-06
4.27292e-05
-2.93629e-06
4.30127e-05
-1.29574e-06
4.30021e-05
6.92494e-07
4.26491e-05
3.09712e-06
4.19058e-05
5.99962e-06
4.07294e-05
9.4899e-06
3.90913e-05
1.36555e-05
3.69857e-05
1.85566e-05
3.44303e-05
2.41691e-05
3.14344e-05
3.02566e-05
2.78927e-05
3.61062e-05
2.34164e-05
3.99801e-05
1.72887e-05
3.85545e-05
9.16263e-06
2.73405e-05
2.86009e-06
1.27269e-06
-2.51261e-06
2.8946e-06
-7.90657e-06
4.52188e-06
-1.03025e-05
6.10036e-06
-1.11501e-05
7.62567e-06
-1.12676e-05
9.10486e-06
-1.10666e-05
1.05466e-05
-1.07566e-05
1.19594e-05
-1.04413e-05
1.33514e-05
-1.0169e-05
1.47301e-05
-9.95839e-06
1.61026e-05
-9.81301e-06
1.74747e-05
-9.72877e-06
1.88516e-05
-9.69788e-06
2.02372e-05
-9.71099e-06
2.16344e-05
-9.75807e-06
2.30451e-05
-9.82884e-06
2.44696e-05
-9.91284e-06
2.59072e-05
-9.99935e-06
2.73559e-05
-1.00772e-05
2.88121e-05
-1.01348e-05
3.02707e-05
-1.01597e-05
3.1725e-05
-1.01386e-05
3.31663e-05
-1.00573e-05
3.45841e-05
-9.90027e-06
3.59658e-05
-9.65097e-06
3.72965e-05
-9.29119e-06
3.85588e-05
-8.80097e-06
3.97327e-05
-8.15814e-06
4.07953e-05
-7.33755e-06
4.17201e-05
-6.31019e-06
4.24773e-05
-5.04186e-06
4.30326e-05
-3.49164e-06
4.33474e-05
-1.61052e-06
4.33787e-05
6.61166e-07
4.30812e-05
3.39461e-06
4.241e-05
6.67089e-06
4.13251e-05
1.05748e-05
3.97982e-05
1.51824e-05
3.78175e-05
2.05373e-05
3.53841e-05
2.66025e-05
3.24863e-05
3.31544e-05
2.90213e-05
3.95713e-05
2.46426e-05
4.43587e-05
1.86326e-05
4.45645e-05
1.03147e-05
3.56584e-05
1.30252e-05
1.32243e-06
-3.83505e-06
3.0405e-06
-9.62463e-06
4.73767e-06
-1.19997e-05
6.35184e-06
-1.27643e-05
7.88836e-06
-1.28042e-05
9.36455e-06
-1.25428e-05
1.07966e-05
-1.21886e-05
1.21977e-05
-1.18425e-05
1.35786e-05
-1.15499e-05
1.49479e-05
-1.13277e-05
1.63128e-05
-1.1178e-05
1.76794e-05
-1.10953e-05
1.90523e-05
-1.10708e-05
2.04353e-05
-1.1094e-05
2.1831e-05
-1.11538e-05
2.32408e-05
-1.12387e-05
2.46651e-05
-1.13371e-05
2.6103e-05
-1.14372e-05
2.75522e-05
-1.15264e-05
2.90092e-05
-1.15918e-05
3.0469e-05
-1.16194e-05
3.19247e-05
-1.15944e-05
3.33681e-05
-1.15006e-05
3.47886e-05
-1.13208e-05
3.61739e-05
-1.10363e-05
3.75093e-05
-1.06267e-05
3.87781e-05
-1.00697e-05
3.99607e-05
-9.34071e-06
4.10348e-05
-8.41168e-06
4.19751e-05
-7.25053e-06
4.27529e-05
-5.81959e-06
4.33353e-05
-4.07412e-06
4.36858e-05
-1.96094e-06
4.37636e-05
5.8337e-07
4.35259e-05
3.63226e-06
4.29303e-05
7.2665e-06
4.19384e-05
1.15668e-05
4.05195e-05
1.66012e-05
3.86524e-05
2.24045e-05
3.63178e-05
2.89371e-05
3.34746e-05
3.59977e-05
3.00005e-05
4.30454e-05
2.55713e-05
4.87879e-05
1.95206e-05
5.06152e-05
1.10489e-05
4.41301e-05
2.3929e-05
1.35399e-06
-5.18903e-06
3.14147e-06
-1.14121e-05
4.89394e-06
-1.37521e-05
6.53978e-06
-1.44102e-05
8.08935e-06
-1.43537e-05
9.56683e-06
-1.40203e-05
1.0994e-05
-1.36158e-05
1.23878e-05
-1.32362e-05
1.3761e-05
-1.29231e-05
1.51235e-05
-1.26902e-05
1.6483e-05
-1.25374e-05
1.78454e-05
-1.24577e-05
1.92155e-05
-1.24409e-05
2.05967e-05
-1.24752e-05
2.19913e-05
-1.25484e-05
2.34008e-05
-1.26481e-05
2.48252e-05
-1.27616e-05
2.62637e-05
-1.28757e-05
2.7714e-05
-1.29768e-05
2.91726e-05
-1.30504e-05
3.06344e-05
-1.30813e-05
3.2093e-05
-1.30529e-05
3.35399e-05
-1.29475e-05
3.49649e-05
-1.27458e-05
3.6356e-05
-1.24273e-05
3.76989e-05
-1.19695e-05
3.8977e-05
-1.13478e-05
4.01714e-05
-1.05352e-05
4.12607e-05
-9.50094e-06
4.22203e-05
-8.21014e-06
4.30226e-05
-6.62189e-06
4.36364e-05
-4.68791e-06
4.40267e-05
-2.35124e-06
4.41552e-05
4.54901e-07
4.39814e-05
3.80605e-06
4.34649e-05
7.78294e-06
4.25681e-05
1.24636e-05
4.12574e-05
1.7912e-05
3.95012e-05
2.41607e-05
3.72605e-05
3.11778e-05
3.44656e-05
3.87926e-05
3.09679e-05
4.65431e-05
2.64449e-05
5.33109e-05
2.02675e-05
5.67927e-05
1.16012e-05
5.27964e-05
3.54311e-05
1.37618e-06
-6.56522e-06
3.21243e-06
-1.32484e-05
5.00507e-06
-1.55448e-05
6.67505e-06
-1.60801e-05
8.23572e-06
-1.59144e-05
9.7157e-06
-1.55003e-05
1.11405e-05
-1.50406e-05
1.25299e-05
-1.46256e-05
1.38982e-05
-1.42914e-05
1.52562e-05
-1.40482e-05
1.6612e-05
-1.38932e-05
1.79717e-05
-1.38174e-05
1.93398e-05
-1.3809e-05
2.07198e-05
-1.38552e-05
2.2114e-05
-1.39426e-05
2.35236e-05
-1.40576e-05
2.49486e-05
-1.41866e-05
2.63882e-05
-1.43153e-05
2.78402e-05
-1.44288e-05
2.93012e-05
-1.45114e-05
3.07662e-05
-1.45463e-05
3.22287e-05
-1.45155e-05
3.36807e-05
-1.43995e-05
3.51121e-05
-1.41773e-05
3.65111e-05
-1.38263e-05
3.78638e-05
-1.33222e-05
3.9154e-05
-1.2638e-05
4.03633e-05
-1.17445e-05
4.1471e-05
-1.06086e-05
4.24534e-05
-9.19255e-06
4.3284e-05
-7.45249e-06
4.3933e-05
-5.33689e-06
4.43671e-05
-2.78539e-06
4.45503e-05
2.71765e-07
4.44443e-05
3.91204e-06
4.40107e-05
8.21647e-06
4.32125e-05
1.32618e-05
4.20131e-05
1.91114e-05
4.03721e-05
2.58017e-05
3.82335e-05
3.33164e-05
3.55025e-05
4.15237e-05
3.20035e-05
5.00421e-05
2.74001e-05
5.79143e-05
2.10698e-05
6.3123e-05
1.21645e-05
6.17017e-05
4.77527e-05
1.39351e-06
-7.95873e-06
3.26255e-06
-1.51174e-05
5.0812e-06
-1.73634e-05
6.76629e-06
-1.77652e-05
8.33376e-06
-1.74819e-05
9.81521e-06
-1.69817e-05
1.12386e-05
-1.6464e-05
1.2625e-05
-1.60121e-05
1.39902e-05
-1.56566e-05
1.53454e-05
-1.54034e-05
1.66989e-05
-1.52467e-05
1.80569e-05
-1.51754e-05
1.9424e-05
-1.51761e-05
2.08036e-05
-1.52348e-05
2.21978e-05
-1.53368e-05
2.36078e-05
-1.54677e-05
2.50339e-05
-1.56127e-05
2.64752e-05
-1.57565e-05
2.79295e-05
-1.58831e-05
2.93935e-05
-1.59754e-05
3.08625e-05
-1.60153e-05
3.23302e-05
-1.59832e-05
3.37887e-05
-1.58579e-05
3.52283e-05
-1.56168e-05
3.66372e-05
-1.52353e-05
3.80019e-05
-1.46869e-05
3.93067e-05
-1.39428e-05
4.05337e-05
-1.29716e-05
4.16628e-05
-1.17377e-05
4.26712e-05
-1.0201e-05
4.35334e-05
-8.31474e-06
4.42211e-05
-6.02456e-06
4.47027e-05
-3.26702e-06
4.49443e-05
3.02179e-08
4.491e-05
3.94634e-06
4.45635e-05
8.56298e-06
4.38684e-05
1.39569e-05
4.27864e-05
2.01934e-05
4.12703e-05
2.73178e-05
3.92512e-05
3.53355e-05
3.66145e-05
4.41603e-05
3.31599e-05
5.34967e-05
2.85264e-05
6.25478e-05
2.20665e-05
6.95829e-05
1.28878e-05
7.08803e-05
6.02983e-05
1.40833e-06
-9.36706e-06
3.29736e-06
-1.70064e-05
5.12917e-06
-1.91952e-05
6.82002e-06
-1.94561e-05
8.38879e-06
-1.90506e-05
9.86924e-06
-1.84622e-05
1.12905e-05
-1.78853e-05
1.26747e-05
-1.73962e-05
1.40376e-05
-1.70196e-05
1.5391e-05
-1.67567e-05
1.67431e-05
-1.65989e-05
1.81003e-05
-1.65325e-05
1.9467e-05
-1.65429e-05
2.08466e-05
-1.66143e-05
2.22412e-05
-1.67315e-05
2.36522e-05
-1.68787e-05
2.50797e-05
-1.70402e-05
2.6523e-05
-1.71998e-05
2.79801e-05
-1.73402e-05
2.94479e-05
-1.74432e-05
3.09218e-05
-1.74892e-05
3.23957e-05
-1.74572e-05
3.3862e-05
-1.73242e-05
3.53112e-05
-1.7066e-05
3.67318e-05
-1.66559e-05
3.81106e-05
-1.60657e-05
3.94324e-05
-1.52645e-05
4.06796e-05
-1.42188e-05
4.18327e-05
-1.28908e-05
4.28699e-05
-1.12382e-05
4.37668e-05
-9.21159e-06
4.44962e-05
-6.754e-06
4.50285e-05
-3.79936e-06
4.53319e-05
-2.73149e-07
4.5373e-05
3.90525e-06
4.51178e-05
8.81821e-06
4.45313e-05
1.45434e-05
4.35747e-05
2.11501e-05
4.21971e-05
2.86954e-05
4.03217e-05
3.72109e-05
3.78207e-05
4.66613e-05
3.44743e-05
5.68431e-05
2.98921e-05
6.713e-05
2.33751e-05
7.60999e-05
1.39155e-05
8.034e-05
7.40409e-05
1.42209e-06
-1.07891e-05
3.32025e-06
-1.89046e-05
5.15356e-06
-2.10285e-05
6.84104e-06
-2.11436e-05
8.40516e-06
-2.06148e-05
9.88128e-06
-1.99383e-05
1.1299e-05
-1.9303e-05
1.26804e-05
-1.87776e-05
1.40414e-05
-1.83805e-05
1.53934e-05
-1.81087e-05
1.67447e-05
-1.79501e-05
1.81014e-05
-1.78893e-05
1.9468e-05
-1.79095e-05
2.08479e-05
-1.79942e-05
2.22433e-05
-1.81268e-05
2.36553e-05
-1.82908e-05
2.50845e-05
-1.84694e-05
2.65301e-05
-1.86454e-05
2.79904e-05
-1.88005e-05
2.94625e-05
-1.89153e-05
3.0942e-05
-1.89687e-05
3.24232e-05
-1.89383e-05
3.38984e-05
-1.87995e-05
3.53586e-05
-1.85261e-05
3.67925e-05
-1.80899e-05
3.81873e-05
-1.74604e-05
3.95279e-05
-1.66052e-05
4.07975e-05
-1.54883e-05
4.1977e-05
-1.40704e-05
4.30454e-05
-1.23066e-05
4.39793e-05
-1.01455e-05
4.47531e-05
-7.5278e-06
4.53389e-05
-4.38513e-06
4.5707e-05
-6.41281e-07
4.58268e-05
3.78545e-06
4.5667e-05
8.97804e-06
4.51949e-05
1.50154e-05
4.43729e-05
2.19721e-05
4.31498e-05
2.99184e-05
4.14465e-05
3.89142e-05
3.91306e-05
4.89772e-05
3.59725e-05
6.00012e-05
3.15562e-05
7.15463e-05
2.51192e-05
8.25368e-05
1.54312e-05
9.0028e-05
8.93025e-05
1.43595e-06
-1.22251e-05
3.33331e-06
-2.0802e-05
5.15737e-06
-2.28526e-05
6.83287e-06
-2.28191e-05
8.38636e-06
-2.21682e-05
9.85446e-06
-2.14064e-05
1.12666e-05
-2.07151e-05
1.26442e-05
-2.01552e-05
1.40027e-05
-1.97391e-05
1.53532e-05
-1.94592e-05
1.67036e-05
-1.93006e-05
1.806e-05
-1.92456e-05
1.94267e-05
-1.92762e-05
2.08069e-05
-1.93744e-05
2.2203e-05
-1.95228e-05
2.36162e-05
-1.9704e-05
2.50471e-05
-1.99003e-05
2.64952e-05
-2.00935e-05
2.79589e-05
-2.02643e-05
2.94357e-05
-2.0392e-05
3.09214e-05
-2.04544e-05
3.24104e-05
-2.04273e-05
3.38956e-05
-2.02847e-05
3.53679e-05
-1.99985e-05
3.68166e-05
-1.95385e-05
3.82288e-05
-1.88727e-05
3.959e-05
-1.79664e-05
4.08837e-05
-1.6782e-05
4.20915e-05
-1.52781e-05
4.31931e-05
-1.34081e-05
4.41661e-05
-1.11185e-05
4.49863e-05
-8.34799e-06
4.56276e-05
-5.02646e-06
4.60628e-05
-1.07651e-06
4.62641e-05
3.58417e-06
4.62033e-05
9.03885e-06
4.5851e-05
1.53677e-05
4.51727e-05
2.26504e-05
4.41207e-05
3.09704e-05
4.262e-05
4.04148e-05
4.05439e-05
5.10534e-05
3.76682e-05
6.28769e-05
3.35697e-05
7.56449e-05
2.74394e-05
8.86671e-05
1.76847e-05
9.97827e-05
0.00010682
1.45102e-06
-1.36761e-05
3.33749e-06
-2.26884e-05
5.14245e-06
-2.46575e-05
6.79808e-06
-2.44747e-05
8.33531e-06
-2.37055e-05
9.7916e-06
-2.28627e-05
1.11956e-05
-2.21191e-05
1.25679e-05
-2.15275e-05
1.3923e-05
-2.10942e-05
1.52714e-05
-2.08076e-05
1.66206e-05
-2.06498e-05
1.79763e-05
-2.06014e-05
1.93428e-05
-2.06427e-05
2.07231e-05
-2.07548e-05
2.21196e-05
-2.09194e-05
2.35338e-05
-2.11181e-05
2.49663e-05
-2.13327e-05
2.64168e-05
-2.1544e-05
2.78841e-05
-2.17315e-05
2.93657e-05
-2.18736e-05
3.08579e-05
-2.19466e-05
3.23553e-05
-2.19248e-05
3.38511e-05
-2.17805e-05
3.53366e-05
-2.14839e-05
3.6801e-05
-2.10029e-05
3.8232e-05
-2.03036e-05
3.96151e-05
-1.93495e-05
4.09344e-05
-1.81013e-05
4.21719e-05
-1.65156e-05
4.3308e-05
-1.45442e-05
4.43215e-05
-1.2132e-05
4.51895e-05
-9.21598e-06
4.58878e-05
-5.7248e-06
4.63917e-05
-1.58042e-06
4.66764e-05
3.2995e-06
4.67173e-05
8.99793e-06
4.64893e-05
1.55958e-05
4.59629e-05
2.31768e-05
4.50974e-05
3.18359e-05
4.38287e-05
4.16835e-05
4.20477e-05
5.28344e-05
3.95579e-05
6.53667e-05
3.59664e-05
7.92364e-05
3.05058e-05
9.41276e-05
2.11271e-05
0.000109161
0.000127784
1.46509e-06
-1.51412e-05
3.33303e-06
-2.45564e-05
5.10995e-06
-2.64345e-05
6.7388e-06
-2.61035e-05
8.25474e-06
-2.52214e-05
9.69564e-06
-2.43036e-05
1.10891e-05
-2.35125e-05
1.24543e-05
-2.28927e-05
1.38047e-05
-2.24446e-05
1.51501e-05
-2.21529e-05
1.64974e-05
-2.19971e-05
1.78519e-05
-2.19559e-05
1.92176e-05
-2.20084e-05
2.05976e-05
-2.21348e-05
2.19942e-05
-2.2316e-05
2.3409e-05
-2.25329e-05
2.48428e-05
-2.27665e-05
2.62955e-05
-2.29967e-05
2.77662e-05
-2.32022e-05
2.92527e-05
-2.33601e-05
3.07516e-05
-2.34455e-05
3.22578e-05
-2.34311e-05
3.37648e-05
-2.32875e-05
3.5264e-05
-2.29831e-05
3.67451e-05
-2.2484e-05
3.81958e-05
-2.17543e-05
3.9602e-05
-2.07557e-05
4.09479e-05
-1.94472e-05
4.22162e-05
-1.77839e-05
4.33879e-05
-1.57159e-05
4.44427e-05
-1.31869e-05
4.53593e-05
-1.01325e-05
4.61153e-05
-6.48088e-06
4.66886e-05
-2.15373e-06
4.70576e-05
2.93055e-06
4.72017e-05
8.85383e-06
4.71007e-05
1.56968e-05
4.6732e-05
2.35456e-05
4.6065e-05
3.25029e-05
4.50527e-05
4.26957e-05
4.36161e-05
5.4271e-05
4.1613e-05
6.73698e-05
3.87457e-05
8.21037e-05
3.43995e-05
9.84738e-05
2.55715e-05
0.000117989
0.000153196
-1.24081e-39
1.48859e-40
-1.20231e-38
3.23981e-39
-1.9313e-38
7.8956e-39
-6.49955e-39
4.1699e-39
-1.05551e-39
3.43387e-40
-7.29575e-41
1.70625e-42
-1.46609e-42
-8.20045e-42
-6.07308e-45
-2.6421e-43
-1.05814e-48
-1.3741e-45
-3.22149e-49
-8.67588e-49
-2.16026e-49
-6.73254e-50
-1.048e-49
-8.84061e-50
-2.58038e-50
-7.78879e-50
-2.24358e-51
-2.85635e-50
-4.30407e-53
-3.65503e-51
-1.03534e-55
-1.07048e-52
1.51048e-56
-1.33562e-54
1.37086e-57
-3.31827e-56
9.11361e-59
-1.20727e-57
4.29976e-60
-4.13104e-59
1.60973e-61
-1.17508e-60
5.24552e-63
-2.7462e-62
1.52869e-64
-5.02169e-64
3.96755e-66
-5.22443e-66
9.12474e-68
1.94012e-68
1.85056e-69
1.52989e-69
3.26767e-71
5.2169e-71
4.96e-73
1.3097e-72
6.34841e-75
2.64963e-74
6.65611e-77
4.41609e-76
5.46255e-79
6.00761e-78
3.28109e-81
6.50613e-80
1.27218e-83
5.38316e-82
2.26235e-86
3.17737e-84
-1.17505e-89
1.17501e-86
-4.18422e-92
1.95703e-89
-4.39912e-93
2.36148e-93
-5.13979e-93
-8.35853e-38
3.41341e-38
-1.01899e-36
9.83397e-37
-1.93556e-36
2.18904e-36
-1.54787e-36
1.56295e-36
-3.1822e-37
3.07604e-37
-2.28607e-38
2.75437e-42
-4.25979e-40
-3.01332e-39
-2.20585e-42
-9.17287e-41
-6.98386e-46
-6.46123e-43
-2.21438e-47
-6.7977e-46
-2.94956e-47
-2.28235e-47
-1.92288e-47
-3.67748e-47
-4.94198e-48
-1.88848e-47
-3.96365e-49
-4.40337e-48
-7.56797e-51
-3.79583e-49
-4.14449e-53
-1.08442e-50
9.11947e-55
-1.886e-52
1.11676e-55
-5.07128e-54
7.90568e-57
-1.71682e-55
3.71366e-58
-5.39398e-57
1.36159e-59
-1.43759e-58
4.33398e-61
-3.20658e-60
1.23271e-62
-5.69682e-62
3.11805e-64
-6.25205e-64
6.9711e-66
4.0889e-66
1.37101e-67
4.148e-67
2.34553e-69
1.42467e-68
3.4471e-71
3.49337e-70
4.27149e-73
6.82922e-72
4.34552e-75
1.09242e-73
3.48778e-77
1.42222e-75
2.07903e-79
1.47169e-77
8.30121e-82
1.15998e-79
1.79146e-84
6.46242e-82
9.38793e-88
2.19428e-84
-6.17709e-91
3.13776e-87
-3.28917e-93
4.64828e-91
-2.21493e-92
-7.87987e-36
4.81484e-36
-1.00446e-34
1.20692e-34
-2.09722e-34
2.99652e-34
-1.64714e-34
2.31946e-34
-3.29687e-35
4.51317e-35
-2.18304e-36
-1.97449e-37
-4.06712e-38
-3.9216e-37
-2.89037e-40
-1.19386e-38
-4.34103e-43
-1.16434e-40
-1.21404e-44
-3.66103e-43
-5.23991e-45
-1.33732e-44
-1.55534e-45
-5.37585e-45
-2.24504e-46
-1.44682e-45
-1.26876e-47
-2.30044e-46
-2.51115e-49
-1.63769e-47
-2.36216e-51
-4.86122e-49
2.04064e-53
-1.02052e-50
3.66339e-54
-2.7421e-52
2.38555e-55
-8.41145e-54
1.04643e-56
-2.38697e-55
3.64902e-58
-5.85842e-57
1.10387e-59
-1.22289e-58
2.96915e-61
-2.06365e-60
7.09289e-63
-2.26645e-62
1.49969e-64
8.34833e-65
2.79268e-66
1.21695e-65
4.53424e-68
4.07895e-67
6.34112e-70
9.5521e-69
7.5048e-72
1.77144e-70
7.33242e-74
2.68127e-72
5.70239e-76
3.30394e-74
3.33991e-78
3.23774e-76
1.34448e-80
2.41166e-78
3.11522e-83
1.25431e-80
2.74631e-86
3.7801e-83
1.36132e-90
4.25143e-86
-1.02133e-91
3.88027e-90
-1.81068e-90
-4.06286e-34
3.26963e-34
-6.00156e-33
8.3364e-33
-1.39598e-32
2.31096e-32
-1.09493e-32
1.92355e-32
-2.13361e-33
3.7598e-33
-1.32871e-34
-2.80437e-35
-2.5845e-36
-2.97571e-35
-2.46718e-38
-9.3423e-37
-1.44278e-40
-1.17926e-38
-3.38896e-42
-9.97989e-41
-4.6073e-43
-2.9141e-42
-6.84193e-44
-4.46623e-43
-6.88096e-45
-7.81404e-44
-3.30861e-46
-9.1104e-45
-6.75372e-48
-5.30733e-46
-7.63672e-50
-1.52023e-47
1.67323e-52
-3.39159e-49
7.39633e-53
-8.77264e-51
4.54486e-54
-2.43654e-52
1.85797e-55
-6.24999e-54
6.08581e-57
-1.4083e-55
1.72829e-58
-2.73359e-57
4.35452e-60
-4.34059e-59
9.74884e-62
-4.66023e-61
1.93525e-63
6.69851e-64
3.39203e-65
1.91479e-64
5.19755e-67
6.22486e-66
6.88041e-69
1.38308e-67
7.7353e-71
2.42099e-69
7.21002e-73
3.45219e-71
5.3778e-75
4.00259e-73
3.03735e-77
3.68026e-75
1.17781e-79
2.54711e-77
2.63721e-82
1.18967e-79
2.53673e-85
3.15209e-82
5.61889e-89
3.05509e-85
6.39876e-91
6.05761e-89
-4.75408e-89
-1.5103e-32
1.49378e-32
-2.61551e-31
4.05874e-31
-6.70632e-31
1.23766e-30
-5.18381e-31
1.0886e-30
-9.81595e-32
2.08115e-31
-5.85075e-33
-2.24056e-33
-1.24452e-34
-1.48767e-33
-1.53791e-36
-5.14856e-35
-1.65085e-38
-8.76723e-37
-3.73259e-40
-1.264e-38
-2.68783e-41
-3.54821e-40
-2.63349e-42
-2.97412e-41
-1.90788e-43
-3.46443e-42
-7.28146e-45
-2.94514e-43
-1.41007e-46
-1.36663e-44
-1.73729e-48
-3.66057e-46
-1.81161e-51
-8.32168e-48
1.17765e-51
-2.05071e-49
6.79383e-53
-5.17279e-51
2.57767e-54
-1.20416e-52
7.88914e-56
-2.49241e-54
2.09376e-57
-4.48979e-56
4.92562e-59
-6.68422e-58
1.03076e-60
-6.92744e-60
1.91668e-62
-9.65808e-64
3.15462e-64
2.17721e-63
4.54986e-66
6.85141e-65
5.68283e-68
1.4408e-66
6.04156e-70
2.3736e-68
5.33381e-72
3.1752e-70
3.76603e-74
3.44037e-72
1.99574e-76
2.93074e-74
7.20631e-79
1.83677e-76
1.56178e-81
7.78082e-79
1.53072e-84
1.87477e-81
5.4574e-88
1.68758e-84
6.1992e-89
8.59392e-88
-5.40503e-88
-4.53064e-31
5.25177e-31
-9.04359e-30
1.53141e-29
-2.5187e-29
5.05114e-29
-1.89222e-29
4.62171e-29
-3.515e-30
8.42124e-30
-2.06293e-31
-1.2358e-31
-5.1419e-33
-5.69487e-32
-8.4994e-35
-2.5113e-33
-1.30545e-36
-6.16126e-35
-2.99407e-38
-1.28891e-36
-1.38205e-39
-3.68124e-38
-8.77618e-41
-1.89981e-39
-4.51353e-42
-1.34972e-40
-1.38394e-43
-7.98788e-42
-2.52707e-45
-2.98832e-43
-3.19069e-47
-7.54511e-45
-7.99735e-50
-1.70162e-46
1.64453e-50
-3.94771e-48
8.83249e-52
-9.06927e-50
3.102e-53
-1.92483e-51
8.83863e-55
-3.66744e-53
2.18602e-56
-6.12987e-55
4.79344e-58
-8.53845e-57
9.36341e-60
-8.47272e-59
1.62854e-61
-1.04539e-61
2.5118e-63
2.04547e-62
3.40072e-65
6.21959e-64
3.99113e-67
1.23392e-65
3.98603e-69
1.905e-67
3.2945e-71
2.37499e-69
2.15982e-73
2.37548e-71
1.05984e-75
1.84613e-73
3.58588e-78
1.05437e-75
7.37425e-81
4.08056e-78
7.36631e-84
8.94576e-81
4.84338e-87
9.26861e-84
1.00265e-87
9.77778e-87
-3.20084e-87
-1.14269e-29
1.49397e-29
-2.60272e-28
4.6936e-28
-7.89696e-28
1.66929e-27
-5.86789e-28
1.58341e-27
-1.10896e-28
2.79792e-28
-7.00027e-30
-6.08645e-30
-2.15731e-31
-2.52642e-30
-4.54742e-33
-1.42111e-31
-8.75338e-35
-4.16727e-33
-2.02293e-36
-1.03297e-34
-6.56048e-38
-2.94479e-36
-2.65621e-39
-1.09562e-37
-9.5662e-41
-4.90031e-39
-2.39548e-42
-2.00208e-40
-4.12096e-44
-6.11705e-42
-5.10694e-46
-1.45017e-43
-1.40382e-48
-3.15365e-45
2.17549e-49
-6.78898e-47
1.07011e-50
-1.42051e-48
3.46598e-52
-2.75601e-50
9.16979e-54
-4.84113e-52
2.10965e-55
-7.51112e-54
4.30711e-57
-9.78019e-56
7.84481e-59
-9.23461e-58
1.2741e-60
-1.78327e-60
1.83675e-62
1.72439e-61
2.32432e-64
5.04813e-63
2.54506e-66
9.40458e-65
2.35792e-68
1.35067e-66
1.79405e-70
1.5485e-68
1.08046e-72
1.41617e-70
4.84801e-75
9.9403e-73
1.5392e-77
5.18458e-75
3.07711e-80
1.86506e-77
3.48225e-83
4.00041e-80
4.13653e-86
5.56609e-83
9.82877e-87
9.34548e-86
-5.99464e-87
-2.46576e-28
3.46964e-28
-6.68353e-27
1.23239e-26
-2.30885e-26
4.89584e-26
-1.82891e-26
4.90818e-26
-3.82558e-27
9.23481e-27
-2.92927e-28
-4.13588e-28
-9.69979e-30
-1.65144e-28
-2.12863e-31
-8.25113e-30
-4.36455e-33
-2.2036e-31
-9.71842e-35
-5.37625e-33
-2.50251e-36
-1.41639e-34
-7.12077e-38
-4.35022e-36
-1.88191e-39
-1.44836e-37
-3.94504e-41
-4.51483e-39
-6.32874e-43
-1.1841e-40
-7.39623e-45
-2.65286e-42
-1.535e-47
-5.50107e-44
2.85205e-48
-1.09494e-45
1.2595e-49
-2.09433e-47
3.74496e-51
-3.72147e-49
9.17807e-53
-6.02706e-51
1.96204e-54
-8.67342e-53
3.72775e-56
-1.05428e-54
6.3254e-58
-9.42833e-57
9.57454e-60
-2.23016e-59
1.28532e-61
1.36946e-60
1.51006e-63
3.84092e-62
1.52666e-65
6.66712e-64
1.30145e-67
8.82614e-66
9.07426e-70
9.2757e-68
4.96438e-72
7.71986e-70
2.07872e-74
4.93471e-72
6.55693e-77
2.46161e-74
1.36435e-79
8.52454e-77
2.10517e-82
2.14831e-79
3.27111e-85
3.77461e-82
7.41794e-86
7.91657e-85
9.00574e-86
-4.94352e-27
6.96862e-27
-1.74445e-25
3.0968e-25
-7.2872e-25
1.46017e-24
-6.66432e-25
1.58761e-24
-1.624e-25
3.54775e-25
-1.28028e-26
-3.42333e-26
-3.61281e-28
-9.11579e-27
-7.57765e-30
-3.52586e-28
-1.54551e-31
-9.26756e-30
-3.1705e-33
-2.26206e-31
-6.85716e-35
-5.05437e-33
-1.53784e-36
-1.20165e-34
-3.26237e-38
-3.11387e-36
-5.95968e-40
-8.01549e-38
-8.88836e-42
-1.89953e-39
-9.53846e-44
-4.11507e-41
-5.04321e-47
-8.32888e-43
3.74645e-47
-1.58609e-44
1.46354e-48
-2.85882e-46
3.98336e-50
-4.75056e-48
9.03573e-52
-7.17566e-50
1.79501e-53
-9.62688e-52
3.17458e-55
-1.09336e-53
5.01603e-57
-9.22147e-56
7.06083e-59
-2.39483e-58
8.78578e-61
1.05175e-59
9.5303e-63
2.80539e-61
8.85465e-65
4.52095e-63
6.8736e-67
5.49754e-65
4.44369e-69
5.28529e-67
2.41301e-71
4.18312e-69
1.01067e-73
2.65961e-71
3.13402e-76
1.26291e-73
7.91325e-79
4.78222e-76
1.49085e-81
1.39119e-78
2.49639e-84
2.86827e-81
4.8287e-85
6.30596e-84
1.36633e-84
-1.10796e-25
1.46812e-25
-4.85979e-24
8.07491e-24
-2.30783e-23
4.34123e-23
-2.26263e-23
4.91651e-23
-5.4996e-24
1.15671e-23
-3.51938e-25
-1.73598e-24
-9.0222e-27
-3.03016e-25
-2.09124e-28
-1.16479e-26
-4.55475e-30
-3.80642e-28
-8.79829e-32
-1.05186e-29
-1.56961e-33
-2.3187e-31
-2.81698e-35
-4.17171e-33
-4.94715e-37
-7.57094e-35
-7.92926e-39
-1.46157e-36
-1.07921e-40
-2.85179e-38
-1.02568e-42
-5.48025e-40
2.38692e-45
-1.03056e-41
4.72751e-46
-1.87232e-43
1.6362e-47
-3.25651e-45
4.1094e-49
-5.24052e-47
8.68308e-51
-7.64849e-49
1.61046e-52
-9.85226e-51
2.65931e-54
-1.06659e-52
3.91872e-56
-8.56261e-55
5.1314e-58
-2.31143e-57
5.91774e-60
7.8767e-59
5.92148e-62
1.99408e-60
5.13896e-64
2.9927e-62
3.91969e-66
3.47737e-64
2.52438e-68
3.31053e-66
1.29511e-70
2.51465e-68
5.45598e-73
1.53168e-70
1.93286e-75
7.80689e-73
5.28271e-78
3.17317e-75
1.07934e-80
9.80954e-78
1.87466e-83
2.26972e-80
2.94719e-84
4.90116e-83
1.3058e-83
-2.66731e-24
3.38159e-24
-1.12295e-22
1.80354e-22
-5.02938e-22
9.26428e-22
-4.48762e-22
9.82575e-22
-9.26089e-23
1.707e-22
-5.13125e-24
-3.59647e-23
-1.45209e-25
-5.09802e-24
-4.11621e-27
-2.29546e-25
-1.01812e-28
-8.99243e-27
-2.21244e-30
-2.73742e-28
-3.76492e-32
-7.82325e-30
-5.69277e-34
-1.64428e-31
-8.19627e-36
-2.84772e-33
-1.09511e-37
-4.57962e-35
-1.2562e-39
-7.14755e-37
-9.40324e-42
-1.08213e-38
7.07756e-44
-1.61674e-40
5.52479e-45
-2.41815e-42
1.68768e-46
-3.60706e-44
3.94195e-48
-5.18963e-46
7.85768e-50
-7.02843e-48
1.37888e-51
-8.65038e-50
2.15027e-53
-9.07973e-52
2.98233e-55
-7.11013e-54
3.66289e-57
-1.97112e-56
3.9825e-59
5.76388e-58
3.86535e-61
1.41787e-59
3.3354e-63
2.09967e-61
2.45335e-65
2.394e-63
1.48602e-67
2.14972e-65
7.8406e-70
1.59922e-67
3.58085e-72
1.02757e-69
1.30277e-74
5.35431e-72
3.8182e-77
2.27813e-74
8.26966e-80
7.53405e-77
1.38097e-82
1.81823e-79
1.9084e-83
3.84178e-82
1.15809e-82
-5.40769e-23
6.82783e-23
-1.66151e-21
2.66888e-21
-5.81488e-21
1.08516e-20
-4.00472e-21
9.63782e-21
-6.64068e-22
8.7608e-22
-3.45496e-23
-2.14814e-22
-1.12885e-24
-2.74346e-23
-3.6119e-26
-1.44259e-24
-9.81427e-28
-5.92093e-26
-2.59768e-29
-1.90369e-27
-5.45839e-31
-6.84425e-29
-9.30229e-33
-2.04e-30
-1.34943e-34
-4.8859e-32
-1.68236e-36
-9.66496e-34
-1.6626e-38
-1.68245e-35
-8.33662e-41
-2.67241e-37
1.59404e-42
-3.88482e-39
7.05316e-44
-5.31538e-41
1.78668e-45
-6.81306e-43
3.70234e-47
-8.15566e-45
6.76813e-49
-9.0453e-47
1.11227e-50
-9.19621e-49
1.64379e-52
-8.24172e-51
2.17165e-54
-5.73445e-53
2.56656e-56
-1.51805e-55
2.75009e-58
4.1827e-57
2.65027e-60
1.02736e-58
2.21e-62
1.49541e-60
1.54999e-64
1.62776e-62
9.57925e-67
1.44074e-64
5.33865e-69
1.11071e-66
2.47628e-71
7.24267e-69
9.20299e-74
3.86072e-71
2.74694e-76
1.6616e-73
6.18341e-79
5.73849e-76
9.83241e-82
1.41101e-78
1.26396e-82
2.93218e-81
9.72131e-82
-8.08296e-22
1.03163e-21
-1.50061e-20
2.45702e-20
-3.6646e-20
7.0274e-20
-1.68346e-20
4.88644e-20
-2.05227e-21
1.48844e-21
-9.37525e-23
-5.05405e-22
-3.3637e-24
-4.66343e-23
-1.15366e-25
-2.84568e-24
-3.51116e-27
-1.19664e-25
-1.02873e-28
-4.4261e-27
-2.61143e-30
-1.66757e-28
-5.46168e-32