/*--------------------------------*- C++ -*----------------------------------*\
  =========                 |
  \\      /  F ield         | OpenFOAM: The Open Source CFD Toolbox
   \\    /   O peration     | Website:  https://openfoam.org
    \\  /    A nd           | Version:  7
     \\/     M anipulation  |
\*---------------------------------------------------------------------------*/
FoamFile
{
    version     2.0;
    format      ascii;
    class       volScalarField;
    location    "0.25";
    object      alpha.water;
}
// * * * * * * * * * * * * * * * * * * * * * * * * * * * * * * * * * * * * * //

dimensions      [0 0 0 0 0 0 0];

internalField   nonuniform List<scalar> 
9072
(
1
1
1
1
1
1
1
1
1
1
1
1
1
1
1
1
1
1
1
1
1
1
1
1
1
1
1
1
1
1
1
1
1
1
1
1
1
1
1
1
1
1
0.950043
0.804972
0.804687
0.847241
1
1
1
1
1
1
1
1
1
1
1
1
1
1
1
1
1
1
1
1
1
1
1
1
1
1
1
1
1
1
1
1
1
1
1
1
1
1
1
1
1
1
0.993709
0.92193
0.954717
0.996462
1
1
1
1
1
1
1
1
1
1
1
1
1
1
1
1
1
1
1
1
1
1
1
1
1
1
1
1
1
1
1
1
1
1
1
1
1
1
1
1
1
1
1
0.999964
0.99998
0.995075
1
1
1
1
1
1
1
1
1
1
1
1
1
1
1
1
1
1
1
1
1
1
1
1
1
1
1
1
1
1
1
1
1
1
1
1
1
1
1
1
1
1
1
0.999998
0.999991
0.983656
1
1
1
1
1
1
1
1
1
1
1
1
1
1
1
1
1
1
1
1
1
1
1
1
1
1
1
1
1
1
1
1
1
1
1
1
1
1
1
1
1
1
1
1
1
0.983639
1
1
1
1
1
1
1
1
1
1
1
1
1
1
1
1
1
1
1
1
1
1
1
1
1
1
1
1
1
1
1
1
1
1
1
1
1
1
1
1
1
1
1
1
1
0.985232
1
1
1
1
1
1
1
1
1
1
1
1
1
1
1
1
1
1
1
1
1
1
1
1
1
1
1
1
1
1
1
1
1
1
1
1
1
1
1
1
1
1
1
1
1
0.985418
1
1
1
1
1
1
1
1
1
1
1
1
1
1
1
1
1
1
1
1
1
1
1
1
1
1
1
1
1
1
1
1
1
1
1
1
1
1
1
1
1
1
1
1
1
0.985436
1
1
1
1
1
1
1
1
1
1
1
1
1
1
1
1
1
1
1
1
1
1
1
1
1
1
1
1
1
1
1
1
1
1
1
1
1
1
1
1
1
1
1
1
1
0.985489
1
1
1
1
1
1
1
1
1
1
1
1
1
1
1
1
1
1
1
1
1
1
1
1
1
1
1
1
1
1
1
1
1
1
1
1
1
1
1
1
1
1
1
1
1
0.990791
1
1
1
1
1
1
1
1
1
1
1
1
1
1
1
1
1
1
1
1
1
1
1
1
1
1
1
1
1
1
1
1
1
1
1
1
1
1
1
1
1
1
1
1
1
0.990782
1
1
1
1
1
1
1
1
1
1
1
1
1
1
1
1
1
1
1
1
1
1
1
1
1
1
1
1
1
1
1
1
1
1
1
1
1
1
1
1
1
1
1
1
1
0.989405
1
1
1
1
1
1
1
1
1
1
1
1
1
1
1
1
1
1
1
1
1
1
1
1
1
1
1
1
1
1
1
1
1
1
1
1
1
1
1
1
1
1
1
1
1
0.989389
1
1
1
1
1
1
1
1
1
1
1
1
1
1
1
1
1
1
1
1
1
1
1
1
1
1
1
1
1
1
1
1
1
1
1
1
1
1
1
1
1
1
1
1
1
0.989421
1
1
1
1
1
1
1
1
1
1
1
1
1
1
1
1
1
1
1
1
1
1
1
1
1
1
1
1
1
1
1
1
1
1
1
1
1
1
1
1
1
1
1
1
1
0.989517
1
1
1
1
1
1
1
1
1
1
1
1
1
1
1
1
1
1
1
1
1
1
1
1
1
1
1
1
1
1
1
1
1
1
1
1
1
1
1
1
1
1
1
1
1
0.989594
2.89043e-34
2.40932e-33
6.46792e-33
5.42646e-33
9.78376e-34
1.38406e-34
8.38326e-36
1.64941e-37
6.86807e-40
1.12561e-43
9.93577e-44
7.78305e-44
4.03915e-44
1.1902e-44
1.45875e-45
5.41145e-47
1.12216e-48
3.64491e-50
1.55092e-51
6.38016e-53
2.32619e-54
7.63338e-56
2.30096e-57
6.37661e-59
1.61405e-60
3.71508e-62
7.71096e-64
1.42977e-65
2.34035e-67
3.33277e-69
4.03631e-71
4.04147e-73
3.21732e-75
1.92028e-77
7.81378e-80
1.82895e-82
1.64721e-85
2.86574e-86
1.06943e-32
1.85765e-31
4.78245e-31
5.51262e-31
2.47134e-31
3.98282e-32
2.56409e-33
4.72722e-35
2.4887e-37
4.05545e-43
4.6422e-42
1.05733e-41
7.27055e-42
2.06096e-42
2.21569e-43
7.2191e-45
1.26661e-46
3.78908e-48
1.55481e-49
6.15015e-51
2.14873e-52
6.76718e-54
1.96348e-55
5.24891e-57
1.28287e-58
2.84769e-60
5.69458e-62
1.01615e-63
1.5985e-65
2.18284e-67
2.5333e-69
2.42799e-71
1.84444e-73
1.04183e-75
3.91934e-78
7.83151e-81
5.07835e-84
3.25048e-86
7.9828e-31
1.55011e-29
4.59006e-29
5.73878e-29
2.56853e-29
4.03204e-30
2.40958e-31
4.44236e-33
3.21342e-35
2.33397e-38
1.63984e-39
1.44881e-39
4.62794e-40
8.22672e-41
6.33005e-42
2.05138e-43
4.84393e-45
1.535e-46
5.72359e-48
2.03824e-49
6.54811e-51
1.92183e-52
5.21617e-54
1.30648e-55
2.99798e-57
6.25977e-59
1.1797e-60
1.98734e-62
2.95639e-64
3.82366e-66
4.21023e-68
3.83215e-70
2.75955e-72
1.46061e-74
4.85733e-77
7.25832e-80
1.91609e-83
1.93251e-84
3.5718e-29
8.16521e-28
2.76941e-27
3.72182e-27
1.68434e-27
2.57004e-28
1.45399e-29
2.80261e-31
2.73576e-33
1.49808e-35
4.53678e-37
9.46318e-38
1.81656e-38
2.34432e-39
1.55135e-40
5.0527e-42
1.27841e-43
3.8932e-45
1.31076e-46
4.21178e-48
1.23912e-49
3.36246e-51
8.46947e-53
1.97332e-54
4.2234e-56
8.24504e-58
1.45624e-59
2.30399e-61
3.22509e-63
3.93056e-65
4.08082e-67
3.49612e-69
2.34863e-71
1.11544e-73
3.22484e-76
3.86959e-79
1.46448e-82
6.73125e-83
1.19742e-27
3.20826e-26
1.22323e-25
1.74332e-25
7.81021e-26
1.16367e-26
6.3411e-28
1.33424e-29
1.672e-31
1.8045e-33
4.87788e-35
5.02858e-36
6.57165e-37
6.21931e-38
3.28287e-39
1.00067e-40
2.59664e-42
7.54795e-44
2.30363e-45
6.69904e-47
1.80521e-48
4.52267e-50
1.05546e-51
2.28402e-53
4.55204e-55
8.2947e-57
1.37033e-58
2.03148e-60
2.66765e-62
3.05035e-64
2.96538e-66
2.3597e-68
1.43579e-70
6.17062e-73
1.60095e-75
1.62083e-78
1.5663e-81
1.08317e-81
3.29018e-26
1.01113e-24
4.24775e-24
6.34769e-24
2.76426e-24
4.08626e-25
2.19332e-26
5.37025e-28
9.00204e-30
1.43815e-31
3.88155e-33
2.44933e-34
2.09806e-35
1.43221e-36
6.11203e-38
1.74631e-39
4.50474e-41
1.23493e-42
3.4298e-44
9.07163e-46
2.24394e-47
5.19267e-49
1.12277e-50
2.25636e-52
4.18543e-54
7.11204e-56
1.09727e-57
1.52032e-59
1.86519e-61
1.98757e-63
1.78533e-65
1.29799e-67
7.19162e-70
2.80821e-72
6.4761e-75
7.21129e-78
1.4549e-80
1.11878e-80
7.60494e-25
2.64674e-23
1.21805e-22
1.91032e-22
8.30225e-23
1.25869e-23
7.16682e-25
2.18178e-26
4.82765e-28
1.0181e-29
2.78343e-31
1.16141e-32
6.22631e-34
2.99868e-35
1.05265e-36
2.83648e-38
7.12326e-40
1.82435e-41
4.62374e-43
1.11757e-44
2.54485e-46
5.44753e-48
1.09233e-49
2.0395e-51
3.52034e-53
5.57204e-55
8.00908e-57
1.03264e-58
1.17461e-60
1.14934e-62
9.44297e-65
6.19372e-67
3.11552e-69
1.12247e-71
2.44507e-74
3.81691e-77
1.1449e-79
8.78822e-80
1.46197e-23
6.00937e-22
3.1359e-21
5.28972e-21
2.55397e-21
4.2247e-22
2.91355e-23
9.82419e-25
2.32021e-26
5.34005e-28
1.4148e-29
4.56723e-31
1.68428e-32
5.9429e-34
1.75689e-35
4.44482e-37
1.06511e-38
2.53097e-40
5.8725e-42
1.30306e-43
2.74008e-45
5.43689e-47
1.0126e-48
1.75821e-50
2.82385e-52
4.1569e-54
5.54619e-56
6.60398e-58
6.90003e-60
6.17854e-62
4.59274e-64
2.71293e-66
1.30638e-68
4.4373e-71
1.15028e-73
2.31465e-76
7.99271e-79
5.85717e-79
2.40803e-22
1.31269e-20
8.29316e-20
1.55589e-19
9.53894e-20
1.7343e-20
1.27499e-21
3.72102e-23
8.42106e-25
1.92786e-26
4.68683e-28
1.27128e-29
3.69737e-31
1.05263e-32
2.73924e-34
6.54041e-36
1.49174e-37
3.31133e-39
7.10701e-41
1.45957e-42
2.84934e-44
5.25997e-46
9.12409e-48
1.4758e-49
2.206e-51
3.01414e-53
3.71584e-55
4.07349e-57
3.88035e-59
3.14858e-61
2.22229e-63
1.30509e-65
5.86405e-68
2.19587e-70
6.69306e-73
1.57282e-75
5.26092e-78
3.54527e-78
4.06834e-21
3.00281e-19
2.22702e-18
4.51081e-18
3.23983e-18
5.56856e-19
3.4636e-20
9.41595e-22
2.404e-23
5.94058e-25
1.33387e-26
2.92441e-28
6.81383e-30
1.62806e-31
3.7922e-33
8.51174e-35
1.85173e-36
3.90404e-38
7.92017e-40
1.53402e-41
2.81986e-43
4.8925e-45
7.95977e-47
1.20489e-48
1.68033e-50
2.13414e-52
2.43156e-54
2.45344e-56
2.22124e-58
1.78448e-60
1.19858e-62
6.69031e-65
3.2562e-67
1.31363e-69
4.24458e-72
1.11723e-74
3.40639e-77
2.07109e-77
7.66316e-20
6.01068e-18
4.42991e-17
8.84164e-17
5.58388e-17
8.82011e-18
4.9556e-19
1.54375e-20
4.99633e-22
1.44002e-23
3.70917e-25
7.65578e-27
1.46534e-28
2.83995e-30
5.56836e-32
1.09356e-33
2.14703e-35
4.17727e-37
7.95064e-39
1.46006e-40
2.55849e-42
4.23473e-44
6.55404e-46
9.39702e-48
1.23493e-49
1.47235e-51
1.59591e-53
1.57976e-55
1.39967e-57
1.05289e-59
6.90202e-62
4.09026e-64
2.03206e-66
8.61514e-69
2.96784e-71
8.01369e-74
2.25692e-76
1.30421e-76
1.32925e-18
8.19117e-17
5.04037e-16
9.04375e-16
4.06739e-16
5.90126e-17
3.23411e-18
1.19882e-19
4.47558e-21
1.44545e-22
4.65469e-24
1.21731e-25
2.6774e-27
5.2942e-29
9.85512e-31
1.75084e-32
3.01148e-34
5.08606e-36
8.49344e-38
1.39664e-39
2.23937e-41
3.45568e-43
5.05371e-45
6.89283e-47
8.65147e-49
1.00247e-50
1.07473e-52
1.04299e-54
8.77595e-57
6.48498e-59
4.42438e-61
2.66422e-63
1.35184e-65
5.76985e-68
2.07415e-70
5.5952e-73
1.48157e-75
8.46535e-76
1.77176e-17
7.09615e-16
3.25631e-15
4.97264e-15
1.40553e-15
1.67312e-16
8.38351e-18
3.50674e-19
1.42964e-20
5.26388e-22
1.91329e-23
6.18084e-25
1.70954e-26
4.0909e-28
8.83597e-30
1.78164e-31
3.36538e-33
5.97554e-35
9.99081e-37
1.57428e-38
2.32232e-40
3.20335e-42
4.18839e-44
5.17844e-46
6.05163e-48
6.74455e-50
7.05904e-52
6.63042e-54
5.3986e-56
4.0723e-58
2.85373e-60
1.69071e-62
8.70977e-65
3.75889e-67
1.38265e-69
3.68016e-72
9.42704e-75
5.50129e-75
1.54129e-16
4.28164e-15
1.55593e-14
2.1315e-14
3.619e-15
3.12008e-16
1.12724e-17
4.87475e-19
2.28081e-20
1.06877e-21
3.80727e-23
1.26489e-24
3.80008e-26
1.02905e-27
2.55164e-29
5.95514e-31
1.31177e-32
2.7206e-34
5.29245e-36
9.61898e-38
1.6085e-39
2.42011e-41
3.30832e-43
4.10223e-45
4.63672e-47
4.83662e-49
4.67299e-51
4.08327e-53
3.27085e-55
2.50157e-57
1.75074e-59
1.03875e-61
5.37864e-64
2.35773e-66
8.68502e-69
2.25544e-71
5.75656e-74
3.51061e-74
1.23839e-15
3.70116e-14
1.40268e-13
2.0049e-13
2.46926e-14
2.77143e-15
1.54801e-17
4.73585e-19
3.31575e-20
3.17862e-21
8.33553e-23
1.95169e-24
4.94823e-26
1.24267e-27
3.28308e-29
8.24146e-31
1.96199e-32
4.41113e-34
9.3157e-36
1.83801e-37
3.37127e-39
5.73944e-41
9.02458e-43
1.30139e-44
1.74135e-46
2.16731e-48
2.41984e-50
2.26268e-52
1.87678e-54
1.46786e-56
1.03081e-58
6.1615e-61
3.19676e-63
1.41551e-65
5.19564e-68
1.31556e-70
3.39986e-73
2.18836e-73
2.63646e-14
6.56554e-13
1.80134e-12
9.74062e-13
1.87643e-13
3.45417e-14
6.52813e-16
5.56432e-19
5.20847e-19
4.46319e-20
1.24099e-21
2.29451e-23
2.50341e-25
4.72495e-28
1.63548e-30
3.24607e-32
5.95671e-34
1.01099e-35
1.58109e-37
2.257e-39
2.8861e-41
3.17864e-43
2.73431e-45
1.211e-47
5.62822e-50
2.28671e-50
1.32879e-50
6.64708e-52
6.31002e-54
5.90069e-56
4.67107e-58
3.00291e-60
1.59292e-62
7.36791e-65
2.74921e-67
6.75957e-70
1.82911e-72
1.26672e-72
1
1
1
1
1
1
1
1
1
1
1
1
1
1
1
1
1
1
1
1
1
1
1
1
1
1
1
1
1
1
1
1
1
1
1
1
1
1
1
1
1
1
1
1
1
0.990296
1
1
1
1
1
1
1
1
1
1
1
1
1
1
1
1
1
1
1
1
1
1
1
1
1
1
1
1
1
1
1
1
1
1
1
1
1
1
1
1
1
1
1
1
1
0.998564
1
1
1
1
1
1
1
1
1
1
1
1
1
1
1
1
1
1
1
1
1
1
1
1
1
1
1
1
1
1
1
1
1
1
1
1
1
1
1
1
1
1
1
1
1
1
1
1
1
1
1
1
1
1
1
1
1
1
1
1
1
1
1
1
1
1
1
1
1
1
1
1
1
1
1
1
1
1
1
1
1
1
1
1
1
1
1
1
1
1
1
1
1
1
1
1
1
1
1
1
1
1
1
1
1
1
1
1
1
1
1
1
1
1
1
1
1
1
1
1
1
1
1
1
1
1
1
1
1
1
1
1
1
1
1
1
1
1
1
1
1
1
1
1
1
1
1
1
1
1
1
1
1
1
1
1
1
1
1
1
1
1
1
1
1
1
1
1
1
1
1
1
1
1
1
1
1
1
1
1
1
1
1
1
1
1
1
1
1
1
1
1
1
1
1
1
1
1
1
1
1
1
1
1
1
1
1
1
1
1
1
1
1
1
1
1
1
1
1
1
1
1
1
1
1
1
1
1
1
1
1
1
1
1
1
1
1
1
1
1
1
1
1
1
1
1
1
1
1
1
1
1
1
1
1
1
1
1
1
1
1
1
1
1
1
1
1
1
1
1
1
1
1
1
1
1
1
1
1
1
1
1
1
1
1
1
1
1
1
1
1
1
1
1
1
1
1
1
1
1
1
1
1
1
1
1
1
1
0.999999
0.999997
0.999994
0.999168
0.998107
0.976975
0.862095
0.685634
0.611054
0.596426
0.638528
0.744736
0.921343
1
1
1
1
1
1
1
1
1
1
1
1
1
1
1
1
1
1
1
1
1
1
1
1
1
1
1
1
1
1
1
0.999995
0.999987
0.999943
0.991012
0.932143
0.759882
0.351219
0.132057
0.0790459
0.0370086
0.020677
0.0175898
0.0258228
0.0590032
0.159713
0.45675
1
1
1
1
1
1
1
1
1
1
1
1
1
1
1
1
1
1
1
1
1
1
1
1
1
1
1
1
0.999994
0.999979
0.999863
0.993684
0.868129
0.54145
0.0842755
-2.05086e-06
4.16748e-06
1.50681e-05
2.54096e-05
2.93902e-05
3.60132e-05
5.28086e-05
9.94441e-05
0.000213955
0.000548539
0.00508253
1
1
1
1
1
1
1
1
1
1
1
1
1
1
1
1
1
1
1
1
1
1
0.999999
0.999999
0.999999
0.999999
0.999996
0.999976
0.999891
0.999517
0.857794
0.494272
0.0289363
1.15682e-05
7.59898e-07
-3.00082e-07
-7.43732e-10
1.35111e-07
4.76551e-07
8.44165e-07
1.34677e-06
2.43633e-06
5.20451e-06
1.00483e-05
3.19584e-05
0.000133519
1
1
0.999999
0.999999
0.999999
1
1
1
1
1
1
1
1
1
1
1
0.999999
0.999999
0.999999
0.999998
0.999996
0.999993
0.999982
0.999978
0.999981
0.999974
0.999941
0.999567
0.944401
0.605694
0.0893101
1.41686e-05
2.72716e-07
6.70918e-08
-2.11009e-08
1.79095e-10
7.7101e-10
1.53854e-09
8.10092e-09
2.12984e-08
4.69996e-08
1.04517e-07
2.60433e-07
7.38611e-07
2.23532e-06
1.00266e-05
0.999998
0.999992
0.999985
0.999985
0.999988
0.999991
0.999994
0.999995
0.999996
0.999997
0.999997
0.999997
0.999997
0.999996
0.999995
0.999994
0.999991
0.999985
0.999977
0.999962
0.999941
0.999884
0.999718
0.999659
0.999673
0.999608
0.997671
0.779193
0.260995
9.00508e-05
3.20634e-06
2.38923e-07
-6.57049e-08
-6.60032e-09
4.58297e-10
4.60502e-10
8.47816e-10
8.57132e-10
1.04193e-09
1.62486e-09
2.80334e-09
5.22304e-09
1.31874e-08
4.07812e-08
1.57562e-07
7.30534e-07
0.999967
0.999853
0.999713
0.999725
0.999784
0.999843
0.999888
0.999918
0.999934
0.999942
0.999945
0.999945
0.999943
0.999937
0.999926
0.999903
0.999857
0.999768
0.999618
0.999406
0.999095
0.97973
0.903092
0.885193
0.896757
0.861117
0.543656
0.0663758
-2.41757e-06
1.99435e-07
-1.8427e-07
-2.02936e-08
1.2251e-10
-8.11669e-11
4.13402e-10
5.96478e-10
8.43365e-10
1.01711e-09
1.03874e-09
1.21887e-09
1.50988e-09
1.61265e-09
1.76718e-09
2.64266e-09
9.40353e-09
4.09601e-08
0.987462
0.908587
0.815983
0.840085
0.889442
0.933193
0.964357
0.983135
0.992959
0.997144
0.998453
0.998851
0.998584
0.997717
0.994457
0.985714
0.965358
0.925553
0.858356
0.763697
0.63588
0.40424
0.196598
0.176098
0.192103
0.133317
-6.42143e-07
-1.05764e-08
-2.52409e-07
-2.90337e-08
-1.46147e-11
-2.72056e-10
1.08789e-10
2.27298e-10
4.3535e-10
7.08729e-10
1.02702e-09
1.31863e-09
1.52869e-09
1.53201e-09
1.55925e-09
1.49428e-09
1.32932e-09
7.71077e-10
1.02358e-09
3.35369e-09
0.426938
0.228686
0.110136
0.128312
0.182234
0.252854
0.331961
0.411392
0.484003
0.5437
0.584553
0.604383
0.592145
0.557557
0.502472
0.426968
0.335789
0.237463
0.14376
0.0677922
0.00764863
-6.08535e-14
-1.30146e-16
4.30446e-11
3.59463e-11
0
-2.86607e-09
-5.43068e-09
-2.11418e-09
-5.65643e-10
-1.12514e-10
-2.59247e-12
1.23823e-10
3.42471e-10
6.27125e-10
9.76523e-10
1.37282e-09
1.74057e-09
1.94616e-09
1.87256e-09
1.66908e-09
1.49106e-09
1.31313e-09
7.04493e-10
6.5297e-10
1.17458e-09
-6.31157e-14
-5.56105e-15
-1.76716e-16
-8.71431e-16
-8.20489e-15
-1.1843e-14
-1.47781e-14
-5.03315e-14
-1.82844e-13
5.75252e-19
0.000211549
0.00425668
0.000927368
-3.11519e-13
-9.11172e-18
-6.20947e-23
-2.09075e-27
0
0
-1.16403e-11
-3.94767e-11
-6.02774e-11
-4.04596e-12
-3.62539e-19
-1.312e-25
-3.75485e-09
-1.45338e-08
-1.07753e-08
-4.4556e-09
-1.25066e-09
-2.27045e-10
5.53487e-11
2.96963e-10
5.43246e-10
8.65092e-10
1.24537e-09
1.64141e-09
1.94512e-09
1.95836e-09
1.87478e-09
1.63181e-09
1.46348e-09
1.26608e-09
6.19672e-10
6.24187e-10
9.67578e-08
2.40904e-16
-1.88803e-16
-1.97092e-16
-4.69124e-15
-4.05216e-14
-5.62897e-14
-6.86511e-14
-4.10369e-13
-2.77602e-12
-1.08737e-11
-1.8541e-08
-2.1407e-08
-1.44783e-08
-8.02496e-09
-3.98487e-09
-1.82767e-09
-7.79022e-10
-3.19037e-10
-1.61677e-10
-1.78547e-10
-3.1087e-10
-2.93732e-10
-4.3734e-14
-5.66841e-12
-6.80381e-18
-4.37558e-09
-8.14538e-09
-5.66148e-09
-2.28245e-09
-5.73623e-10
-2.70928e-11
2.33459e-10
4.50143e-10
7.10275e-10
1.02309e-09
1.36746e-09
1.70973e-09
1.93762e-09
1.95836e-09
1.79494e-09
1.52278e-09
1.2829e-09
8.60904e-10
6.13293e-10
6.19192e-10
5.74821e-07
1.56569e-15
-1.31345e-16
-3.5874e-16
-7.82267e-15
-6.15135e-14
-9.01341e-14
-1.15221e-13
-6.91252e-13
-4.78317e-12
-1.92915e-11
-2.64087e-08
-3.29922e-08
-2.37539e-08
-1.36648e-08
-6.9517e-09
-3.21092e-09
-1.35871e-09
-5.49751e-10
-2.82952e-10
-3.32722e-10
-5.56887e-10
-4.73617e-10
-1.5737e-14
1.5325e-08
1.18573e-08
1.05972e-10
-3.9162e-09
-2.75786e-09
-9.49047e-10
-1.25443e-10
1.52852e-10
3.44833e-10
5.49279e-10
7.92453e-10
1.07208e-09
1.35451e-09
1.62828e-09
1.82499e-09
1.87321e-09
1.64515e-09
1.33348e-09
9.76636e-10
6.06197e-10
6.1064e-10
1.67091e-08
6.35353e-07
2.28532e-15
-2.02185e-16
-4.87559e-16
-1.00486e-14
-7.46954e-14
-1.122e-13
-1.49273e-13
-8.78691e-13
-6.08816e-12
-2.46432e-11
-1.9057e-08
-2.69471e-08
-2.19769e-08
-1.39506e-08
-7.52658e-09
-3.55136e-09
-1.4957e-09
-6.05612e-10
-3.52675e-10
-4.91653e-10
-8.15124e-10
-5.9363e-10
-4.85311e-13
7.94175e-08
6.48927e-08
4.08335e-09
-6.28205e-19
-1.67322e-10
-2.63641e-28
1.27718e-10
2.54379e-10
4.02764e-10
5.91979e-10
8.04876e-10
1.00019e-09
1.18971e-09
1.3929e-09
1.56169e-09
1.6153e-09
1.43265e-09
1.06828e-09
7.43344e-10
5.5222e-10
1.61253e-09
1.80516e-08
6.21118e-08
2.35432e-15
-1.94848e-16
-5.3128e-16
-1.12761e-14
-8.10991e-14
-1.21873e-13
-1.71475e-13
-1.0253e-12
-6.96537e-12
-2.77695e-11
-7.56262e-09
-1.39485e-08
-1.43135e-08
-1.05651e-08
-6.13513e-09
-2.94682e-09
-1.22624e-09
-5.13226e-10
-3.94115e-10
-6.78437e-10
-1.09184e-09
-6.47562e-10
3.67067e-08
8.34114e-08
8.12776e-08
4.65998e-09
1.4757e-11
2.73453e-11
1.03312e-10
1.79656e-10
2.84947e-10
4.24539e-10
5.76356e-10
7.13745e-10
8.35314e-10
9.47741e-10
1.06819e-09
1.17605e-09
1.21732e-09
1.10316e-09
7.59872e-10
5.1546e-10
4.13861e-10
3.83652e-10
1.22801e-10
1.24285e-10
1.92883e-15
-1.17393e-16
-4.9813e-16
-1.14195e-14
-8.07858e-14
-1.19181e-13
-1.83887e-13
-1.16454e-12
-7.63777e-12
-2.94647e-11
-1.71906e-09
-6.39996e-09
-8.7265e-09
-7.17752e-09
-4.25542e-09
-1.99385e-09
-8.03694e-10
-3.83064e-10
-4.54627e-10
-9.03943e-10
-1.36583e-09
-6.40941e-10
5.98917e-08
8.34114e-08
3.9142e-08
4.8355e-10
2.387e-11
6.7353e-11
1.22902e-10
1.9361e-10
2.92339e-10
3.90794e-10
4.86283e-10
5.66971e-10
6.29505e-10
6.75675e-10
7.14039e-10
7.48129e-10
7.63017e-10
6.77564e-10
4.4702e-10
2.66017e-10
1.58997e-10
1.19415e-10
1.22302e-10
1.22045e-10
5.55985e-16
-7.4061e-17
-4.20105e-16
-1.05511e-14
-7.41159e-14
-1.06038e-13
-1.90554e-13
-1.30295e-12
-8.1376e-12
-2.99691e-11
-1.32243e-09
-4.81367e-09
-6.21767e-09
-4.77934e-09
-2.61964e-09
-1.12907e-09
-4.44175e-10
-3.05284e-10
-5.60192e-10
-1.14893e-09
-1.59175e-09
-6.21493e-10
1.27916e-08
8.25492e-08
7.78334e-09
4.1481e-27
2.37367e-11
7.71464e-11
1.28605e-10
1.91532e-10
2.50056e-10
3.10713e-10
3.60217e-10
3.94313e-10
4.09847e-10
4.10249e-10
3.96652e-10
3.83429e-10
3.66074e-10
3.08795e-10
2.01455e-10
1.12039e-10
7.12505e-11
6.16245e-11
6.80978e-11
7.46035e-11
8.04495e-17
-6.20199e-17
-3.26862e-16
-8.88673e-15
-6.22396e-14
-8.66465e-14
-1.963e-13
-1.42524e-12
-8.36023e-12
-2.91444e-11
-9.07657e-10
-3.18364e-09
-3.79695e-09
-2.65497e-09
-1.30995e-09
-5.14064e-10
-2.30784e-10
-3.02926e-10
-6.97021e-10
-1.36201e-09
-1.71824e-09
-6.69276e-10
-1.33601e-10
9.5733e-09
1.58953e-10
-2.65619e-10
4.2602e-11
7.82239e-11
1.11366e-10
1.50128e-10
1.85595e-10
2.11984e-10
2.24601e-10
2.28415e-10
2.15616e-10
1.96112e-10
1.71958e-10
1.4905e-10
1.27957e-10
1.01649e-10
6.69368e-11
3.701e-11
2.59137e-11
2.70315e-11
3.60703e-11
1.39778e-10
8.38124e-18
-4.13628e-17
-2.35754e-16
-6.78928e-15
-4.7451e-14
-6.64376e-14
-2.04316e-13
-1.50395e-12
-8.1709e-12
-2.68332e-11
-5.47015e-10
-1.81668e-09
-1.94922e-09
-1.20675e-09
-5.23663e-10
-1.97508e-10
-1.53583e-10
-3.50115e-10
-8.22893e-10
-1.47733e-09
-1.71101e-09
-8.24522e-10
-3.01729e-10
-1.53583e-10
-1.53093e-10
-1.65138e-10
4.3477e-11
5.96084e-11
8.03712e-11
1.02297e-10
1.15084e-10
1.1887e-10
1.11304e-10
9.92513e-11
8.49213e-11
6.96878e-11
5.47479e-11
4.18686e-11
3.17646e-11
2.33691e-11
1.53488e-11
8.84171e-12
6.06365e-12
8.69191e-12
2.39932e-11
2.41243e-10
6.38563e-19
-2.17123e-17
-1.6008e-16
-4.68591e-15
-3.26922e-14
-5.00779e-14
-2.13913e-13
-1.50954e-12
-7.49386e-12
-2.31067e-11
-2.85305e-10
-8.74557e-10
-8.21623e-10
-4.39873e-10
-1.68859e-10
-8.35033e-11
-1.4987e-10
-4.0278e-10
-8.87821e-10
-1.44419e-09
-1.56615e-09
-9.8041e-10
-5.0056e-10
-2.7578e-10
-1.93282e-10
-9.19041e-11
3.36272e-11
3.98829e-11
4.87169e-11
5.6219e-11
5.73772e-11
4.86111e-11
3.96881e-11
3.13486e-11
2.38343e-11
1.74215e-11
1.21952e-11
8.25474e-12
5.53605e-12
3.70255e-12
2.33352e-12
1.46507e-12
1.20083e-12
4.20642e-12
2.86158e-11
3.36468e-10
1.63932e-20
-9.88883e-18
-1.05753e-16
-2.93056e-15
-2.04864e-14
-3.96826e-14
-2.20237e-13
-1.42186e-12
-6.36697e-12
-1.83617e-11
-1.28859e-10
-3.48161e-10
-2.79665e-10
-1.30025e-10
-5.20131e-11
-5.94347e-11
-1.65144e-10
-4.24351e-10
-8.55128e-10
-1.25651e-09
-1.30889e-09
-9.52625e-10
-5.39342e-10
-2.85771e-10
-1.4789e-10
-4.37072e-11
2.05463e-11
2.18473e-11
2.25751e-11
2.4019e-11
1.98215e-11
1.40383e-11
1.00483e-11
6.9345e-12
4.62363e-12
2.98795e-12
1.87419e-12
1.14939e-12
7.01738e-13
4.31921e-13
2.57443e-13
1.60865e-13
1.90509e-13
1.68914e-12
7.89518e-12
1.13768e-10
-2.19696e-20
-4.52566e-18
-7.14754e-17
-1.69845e-15
-1.20669e-14
-3.44142e-14
-2.16492e-13
-1.24012e-12
-4.94676e-12
-1.32538e-11
-5.24978e-11
-1.15094e-10
-7.94504e-11
-3.63574e-11
-2.4987e-11
-5.88593e-11
-1.70209e-10
-3.96663e-10
-7.1241e-10
-9.67174e-10
-9.77334e-10
-7.32109e-10
-4.2146e-10
-2.04615e-10
-8.28041e-11
-1.61087e-11
9.83139e-12
9.31186e-12
7.67994e-12
6.91496e-12
4.66882e-12
2.89353e-12
1.7956e-12
1.08098e-12
6.32139e-13
3.64889e-13
2.09917e-13
1.21116e-13
7.07444e-14
4.18676e-14
2.41009e-14
1.35189e-14
9.70011e-15
1.34719e-13
1.49358e-12
3.24731e-11
-3.25065e-20
-2.58631e-18
-5.22679e-17
-9.72479e-16
-7.23102e-15
-3.15978e-14
-1.97588e-13
-9.86762e-13
-3.46188e-12
-8.51342e-12
-2.10448e-11
-3.4081e-11
-2.23404e-11
-1.38253e-11
-1.99768e-11
-5.63085e-11
-1.48033e-10
-3.12811e-10
-5.17444e-10
-6.59537e-10
-6.38048e-10
-4.63151e-10
-2.5304e-10
-1.06694e-10
-3.3324e-11
-3.43931e-12
3.83173e-12
2.89553e-12
1.81871e-12
1.33403e-12
7.96003e-13
4.33031e-13
2.36694e-13
1.26495e-13
6.64332e-14
3.53399e-14
1.929e-14
1.08156e-14
6.25759e-15
3.69226e-15
2.12572e-15
1.06282e-15
1.09052e-16
2.14407e-15
4.72919e-14
2.50365e-12
-3.7163e-20
-2.02216e-18
-4.23564e-17
-6.12698e-16
-4.86932e-15
-2.84708e-14
-1.63262e-13
-7.02541e-13
-2.13776e-12
-4.72876e-12
-8.58259e-12
-1.04217e-11
-7.86914e-12
-7.52639e-12
-1.5977e-11
-4.447e-11
-1.07438e-10
-2.10043e-10
-3.26212e-10
-3.96095e-10
-3.68558e-10
-2.55814e-10
-1.27661e-10
-4.34427e-11
-8.88539e-12
5.34023e-14
1.13812e-12
6.49023e-13
3.21096e-13
1.92733e-13
1.02175e-13
5.02649e-14
2.50945e-14
1.23439e-14
6.05791e-15
3.06561e-15
1.61709e-15
8.87827e-16
5.09603e-16
3.01336e-16
1.75959e-16
8.99245e-17
4.81408e-18
7.0848e-17
1.08069e-15
5.4127e-14
-4.02983e-20
-1.87405e-18
-3.68333e-17
-4.52005e-16
-3.71604e-15
-2.35264e-14
-1.17555e-13
-4.25597e-13
-1.10434e-12
-2.13267e-12
-3.22184e-12
-3.52889e-12
-3.12523e-12
-4.33524e-12
-1.08212e-11
-2.86381e-11
-6.44083e-11
-1.18471e-10
-1.75637e-10
-2.06612e-10
-1.887e-10
-1.29514e-10
-6.33968e-11
-2.01301e-11
-3.26413e-12
1.12203e-13
2.27396e-13
1.0226e-13
4.33663e-14
2.20264e-14
1.06929e-14
4.95143e-15
2.34393e-15
1.10039e-15
5.18231e-16
2.51528e-16
1.27184e-16
6.76399e-17
3.80089e-17
2.22933e-17
1.32087e-17
7.0946e-18
2.76393e-19
2.78044e-18
4.33503e-17
6.44262e-16
-3.92048e-20
-1.53173e-18
-2.76632e-17
-3.14412e-16
-2.50965e-15
-1.48027e-14
-6.41595e-14
-2.00775e-13
-4.57088e-13
-7.84313e-13
-1.05613e-12
-1.13989e-12
-1.24603e-12
-2.26166e-12
-5.88366e-12
-1.4699e-11
-3.11178e-11
-5.44939e-11
-7.79802e-11
-8.98257e-11
-8.14765e-11
-5.62422e-11
-2.79188e-11
-8.95841e-12
-1.41825e-12
2.06022e-14
3.10307e-14
9.164e-15
4.45211e-15
2.06952e-15
9.67695e-16
4.42325e-16
2.02208e-16
9.19753e-17
4.15195e-17
1.9128e-17
9.13512e-18
4.65905e-18
2.54363e-18
1.47002e-18
8.80064e-19
4.9619e-19
5.95659e-20
1.06004e-19
1.69576e-18
2.5967e-17
-2.67435e-20
-9.52195e-19
-1.62109e-17
-1.73469e-16
-1.28617e-15
-6.83995e-15
-2.6299e-14
-7.35668e-14
-1.52408e-13
-2.42573e-13
-3.11249e-13
-3.49924e-13
-4.59092e-13
-9.57031e-13
-2.45229e-12
-5.78502e-12
-1.16028e-11
-1.94502e-11
-2.69657e-11
-3.04828e-11
-2.74907e-11
-1.91025e-11
-9.63911e-12
-3.14782e-12
-4.88911e-13
1.40771e-14
3.84315e-15
7.2934e-16
3.5292e-16
1.63872e-16
7.79433e-17
3.60245e-17
1.59667e-17
6.97527e-18
2.98099e-18
1.29097e-18
5.8134e-19
2.84385e-19
1.51224e-19
8.62176e-20
5.20068e-20
3.13166e-20
1.01094e-20
3.92859e-21
6.45007e-20
1.01561e-18
-1.27823e-20
-4.28217e-19
-6.87767e-18
-6.85725e-17
-4.6679e-16
-2.25905e-15
-7.93571e-15
-2.06077e-14
-4.05704e-14
-6.28261e-14
-8.0347e-14
-9.46445e-14
-1.37818e-13
-2.99421e-13
-7.36852e-13
-1.64201e-12
-3.12293e-12
-4.99901e-12
-6.67305e-12
-7.33215e-12
-6.49503e-12
-4.4836e-12
-2.27397e-12
-7.54309e-13
-1.192e-13
3.69265e-15
3.35089e-16
8.79087e-17
2.84659e-17
1.16609e-17
5.59733e-18
2.59381e-18
1.1113e-18
4.58458e-19
1.84886e-19
7.53819e-20
3.24242e-20
1.5342e-20
8.00548e-21
4.52549e-21
2.758e-21
1.77398e-21
8.28003e-22
1.409e-22
2.37273e-21
3.83665e-20
-3.91908e-21
-1.24311e-19
-1.87847e-18
-1.74677e-17
-1.10476e-16
-4.9909e-16
-1.66e-15
-4.17117e-15
-8.13806e-15
-1.26898e-14
-1.64103e-14
-1.96551e-14
-2.91086e-14
-6.18525e-14
-1.44776e-13
-3.06151e-13
-5.53719e-13
-8.42829e-13
-1.06888e-12
-1.11437e-12
-9.34827e-13
-6.09714e-13
-2.91094e-13
-9.01748e-14
-1.29352e-14
4.54895e-16
5.52206e-17
1.50892e-17
3.01918e-18
8.1062e-19
3.53471e-19
1.61447e-19
6.59177e-20
2.56242e-20
9.83274e-21
3.82265e-21
1.59407e-21
7.36644e-22
3.7978e-22
2.13902e-22
1.32343e-22
9.0612e-23
5.20509e-23
4.86508e-24
8.3968e-23
1.39319e-21
-6.05575e-22
-1.8326e-20
-2.63737e-19
-2.33833e-18
-1.42072e-17
-6.25753e-17
-2.07133e-16
-5.29248e-16
-1.06452e-15
-1.70592e-15
-2.21481e-15
-2.53796e-15
-3.38142e-15
-6.54174e-15
-1.4574e-14
-3.05532e-14
-5.59223e-14
-8.60533e-14
-1.1029e-13
-1.16103e-13
-9.8168e-14
-6.46639e-14
-3.12182e-14
-9.77499e-15
-1.41593e-15
4.84508e-17
7.29948e-18
2.2271e-18
3.27874e-19
5.35442e-20
1.94228e-20
8.65547e-21
3.30614e-21
1.23917e-21
4.56133e-22
1.71797e-22
6.98178e-23
3.17055e-23
1.62212e-23
9.13733e-24
5.77069e-24
4.20415e-24
2.77382e-24
1.6094e-25
2.84014e-24
4.83252e-23
-1.53065e-23
-4.98006e-22
-7.83821e-21
-7.75013e-20
-5.34481e-19
-2.70514e-18
-1.03125e-17
-2.99608e-17
-6.64518e-17
-1.1163e-16
-1.38696e-16
-1.18403e-16
-4.51928e-17
6.17803e-17
5.22287e-16
1.02938e-15
1.17826e-15
1.15575e-15
5.92181e-16
1.08548e-16
-2.45109e-17
-1.19158e-16
-7.27638e-17
-1.08529e-17
6.00146e-18
2.31174e-18
4.14891e-19
1.3901e-19
1.90809e-20
2.65575e-21
9.24291e-22
4.03017e-22
1.43087e-22
5.34161e-23
1.88849e-23
6.94734e-24
2.74394e-24
1.22767e-24
6.25207e-25
3.53333e-25
2.2882e-25
1.77588e-25
1.30029e-25
5.08538e-27
9.12565e-26
1.59138e-24
0
0
0
-3.77323e-51
-3.12638e-48
-2.12432e-45
-2.68942e-42
-4.98692e-39
-1.17861e-35
5.17446e-25
1.16125e-24
-1.92785e-26
-7.31629e-43
4.6283e-20
3.41726e-18
3.28069e-17
8.72978e-17
4.86739e-17
4.70129e-17
8.63583e-17
7.41846e-17
8.77203e-18
1.44777e-19
5.18718e-20
2.33603e-20
8.79345e-21
3.8211e-21
1.04432e-21
2.30634e-22
7.73123e-23
4.03323e-23
1.56761e-23
5.52837e-24
2.0716e-24
7.05952e-25
2.53045e-25
9.69795e-26
4.28096e-26
2.17691e-26
1.23897e-26
8.26332e-27
6.80591e-27
5.46244e-27
1.60447e-28
2.77293e-27
4.95434e-26
2.21154e-45
1.16425e-42
2.73371e-40
4.34804e-38
5.27407e-36
5.1936e-34
4.31519e-32
3.63103e-28
2.60446e-25
3.03029e-24
5.94506e-24
2.98179e-24
6.37671e-25
7.48029e-23
1.95457e-21
1.22403e-20
3.45116e-20
6.26376e-20
8.51108e-20
9.21709e-20
4.798e-20
1.20008e-21
1.10072e-21
6.72094e-22
2.68202e-22
7.14991e-23
1.37295e-23
2.99956e-24
2.31877e-24
3.00867e-24
1.72462e-24
4.72459e-25
1.97037e-25
7.06929e-26
2.37582e-26
8.25094e-27
3.0803e-27
1.34459e-27
6.85272e-28
3.94617e-28
2.72732e-28
2.37476e-28
2.02495e-28
5.4274e-30
7.93777e-29
1.4535e-27
0
-7.05078e-46
-3.01714e-43
-7.08934e-41
-1.12249e-38
-1.35359e-36
-1.32816e-34
-5.52506e-33
3.74687e-29
1.82039e-26
2.28127e-25
3.8681e-25
6.38264e-25
6.33822e-25
1.32296e-24
5.3466e-24
1.59591e-23
3.36732e-23
5.44346e-23
7.18415e-23
8.00506e-23
7.91333e-23
5.85667e-23
2.95408e-23
9.68551e-24
2.2834e-24
3.85943e-25
1.06159e-25
9.50118e-26
9.52947e-26
3.7482e-26
1.34763e-26
6.28189e-27
2.07066e-27
7.12599e-28
2.3961e-28
8.77755e-29
3.80369e-29
1.95133e-29
1.14302e-29
8.22643e-30
7.50108e-30
6.78719e-30
1.84815e-31
2.13399e-30
4.0061e-29
-9.56937e-45
-5.56476e-44
-4.73839e-46
-7.32865e-44
-8.90587e-42
-8.7479e-40
-7.21987e-38
1.10451e-36
9.44553e-35
5.9361e-33
2.48947e-30
5.24331e-28
7.08751e-27
2.80289e-26
5.61156e-26
8.36222e-26
1.29558e-25
3.12628e-25
1.07298e-24
2.66091e-24
4.2298e-24
4.89264e-24
4.34933e-24
1.61999e-24
4.17309e-25
9.59359e-26
1.94777e-26
5.42383e-27
2.81646e-27
1.54329e-27
6.95638e-28
3.57715e-28
1.58621e-28
5.25153e-29
1.87078e-29
6.16372e-30
2.23724e-30
9.68497e-31
5.02769e-31
3.01623e-31
2.27126e-31
2.13691e-31
2.07026e-31
1.20464e-32
5.37517e-32
1.03475e-30
-1.72468e-62
-2.078e-58
6.55899e-49
1.49766e-46
2.27493e-44
2.16036e-42
1.726e-40
2.0403e-38
1.34089e-36
7.98255e-35
8.46866e-32
1.40671e-29
1.81571e-28
7.48802e-28
1.70679e-27
3.09394e-27
6.24571e-27
1.95182e-26
6.38797e-26
1.38203e-25
1.99981e-25
2.22595e-25
1.77334e-25
6.27048e-26
1.72498e-26
4.33267e-27
9.83464e-28
2.36269e-28
7.2194e-29
2.99109e-29
1.56074e-29
7.74708e-30
3.08018e-30
1.1622e-30
4.16542e-31
1.38526e-31
5.06224e-32
2.2141e-32
1.17186e-32
7.25138e-33
5.71961e-33
5.52141e-33
5.69209e-33
1.08094e-33
1.2658e-33
2.50087e-32
6.52477e-56
8.97287e-54
-2.65074e-51
1.02773e-48
1.19387e-46
1.10624e-44
8.61886e-43
1.39887e-40
9.60163e-39
5.14401e-37
1.09027e-34
1.01769e-31
2.76858e-30
1.81773e-29
5.69058e-29
1.30969e-28
3.16371e-28
9.86551e-28
2.92283e-27
5.97661e-27
8.42497e-27
9.27031e-27
7.03145e-27
2.39562e-27
6.36478e-28
1.4566e-28
2.73137e-29
5.35353e-30
1.78987e-30
8.71634e-31
4.00671e-31
1.5542e-31
5.68371e-32
2.21966e-32
7.6877e-33
2.65182e-33
9.99558e-34
4.51482e-34
2.46849e-34
1.58861e-34
1.30467e-34
1.29867e-34
1.40433e-34
3.49423e-35
2.78182e-35
5.64728e-34
-6.51346e-57
-3.56895e-54
-2.20024e-52
-2.9596e-50
-3.0851e-48
-2.80831e-46
-2.13552e-44
1.08014e-42
7.17063e-41
3.89035e-39
2.41574e-37
2.89415e-34
3.15799e-32
4.02159e-31
1.87243e-30
5.42459e-30
1.43141e-29
4.17667e-29
1.13508e-28
2.24492e-28
3.14031e-28
3.45084e-28
2.63098e-28
9.03365e-29
2.38187e-29
5.29186e-30
9.18617e-31
1.59875e-31
5.47914e-32
2.80198e-32
1.12977e-32
3.7089e-33
1.24647e-33
4.04834e-34
1.25836e-34
4.29739e-35
1.68599e-35
8.12145e-36
4.6873e-36
3.16927e-36
2.6924e-36
2.77658e-36
3.09427e-36
7.48031e-37
5.69668e-37
1.18998e-35
1.0982e-60
5.00701e-58
2.39481e-55
4.56099e-53
5.65368e-51
5.61694e-49
4.67703e-47
6.01351e-45
4.00265e-43
2.26939e-41
1.13527e-39
2.77621e-37
2.36631e-34
5.95804e-33
4.19834e-32
1.56575e-31
4.68387e-31
1.37887e-30
3.64102e-30
7.18341e-30
1.01858e-29
1.13073e-29
9.20603e-30
3.36035e-30
9.04264e-31
2.05415e-31
3.61297e-32
5.80519e-33
1.63534e-33
7.65644e-34
3.10921e-34
1.04594e-34
3.37903e-35
8.99937e-36
2.33423e-36
6.66556e-37
2.49022e-37
1.2852e-37
8.00704e-38
5.74957e-38
5.02957e-38
5.37537e-38
6.07633e-38
1.18549e-38
1.08551e-38
2.33724e-37
-1.78966e-76
-2.65546e-61
5.36027e-59
7.80971e-56
9.92898e-54
1.01379e-51
8.62037e-50
1.29546e-47
8.8735e-46
5.1574e-44