/*--------------------------------*- C++ -*----------------------------------*\
  =========                 |
  \\      /  F ield         | OpenFOAM: The Open Source CFD Toolbox
   \\    /   O peration     | Website:  https://openfoam.org
    \\  /    A nd           | Version:  7
     \\/     M anipulation  |
\*---------------------------------------------------------------------------*/
FoamFile
{
    version     2.0;
    format      ascii;
    class       volScalarField;
    location    "0.25";
    object      epsilon;
}
// * * * * * * * * * * * * * * * * * * * * * * * * * * * * * * * * * * * * * //

dimensions      [0 2 -3 0 0 0 0];

internalField   nonuniform List<scalar> 
9072
(
0.0343487
0.135436
0.261844
0.380951
0.486303
0.582803
0.67324
0.759991
0.844984
0.929786
1.01566
1.10365
1.19459
1.28917
1.3879
1.49108
1.59881
1.71094
1.82702
1.94629
2.06763
2.18958
2.31032
2.4277
2.53929
2.64243
2.73431
2.81207
2.87288
2.91404
2.93302
2.92735
2.89389
2.83914
2.76291
2.6599
2.52633
2.3584
2.15202
1.90469
1.61987
1.3164
1.09122
1.11655
1.03731
1.02698
0.0440253
0.0890352
0.13952
0.182952
0.220464
0.253862
0.284511
0.313461
0.341486
0.369165
0.396945
0.425187
0.454189
0.484194
0.515396
0.547935
0.581888
0.617261
0.65398
0.691877
0.730689
0.770048
0.80949
0.848454
0.886304
0.922344
0.955847
0.98609
1.01239
1.03414
1.05089
1.06236
1.06865
1.0757
1.08515
1.09798
1.11682
1.14647
1.19408
1.26958
1.38448
1.53727
1.62614
1.47529
0.973078
0.982008
0.064274
0.0932427
0.127758
0.157065
0.181682
0.202885
0.221803
0.239313
0.256046
0.272454
0.288868
0.305542
0.322676
0.340429
0.358924
0.37825
0.398453
0.419538
0.441461
0.464122
0.487363
0.51097
0.53467
0.558141
0.581021
0.602924
0.623461
0.642262
0.65901
0.673476
0.685571
0.695402
0.703466
0.712059
0.723402
0.739687
0.7643
0.802439
0.861967
0.955368
1.10325
1.33029
1.57868
1.63997
1.26889
1.39569
0.0864758
0.104777
0.131413
0.154128
0.172984
0.188906
0.202839
0.215546
0.22759
0.239368
0.251171
0.26321
0.275648
0.288607
0.302178
0.316419
0.331357
0.346983
0.363247
0.380061
0.397289
0.414755
0.43224
0.449493
0.466239
0.482191
0.497074
0.510644
0.522716
0.533201
0.542156
0.549845
0.556894
0.564882
0.575884
0.592368
0.617853
0.657225
0.717022
0.806269
0.939183
1.13735
1.3856
1.56249
1.48549
1.95888
0.107773
0.118658
0.139819
0.157983
0.173031
0.185637
0.196562
0.206459
0.215818
0.224994
0.234245
0.243757
0.253666
0.264073
0.275047
0.286627
0.298822
0.311609
0.324931
0.338694
0.352768
0.366986
0.381151
0.395039
0.408412
0.421033
0.432681
0.443173
0.452397
0.460342
0.467149
0.473177
0.479134
0.48643
0.497088
0.513723
0.539955
0.580527
0.641121
0.72811
0.849443
1.01794
1.23816
1.47669
1.6569
2.56658
0.127067
0.132529
0.149677
0.164319
0.176432
0.186558
0.195321
0.203267
0.210818
0.218282
0.225885
0.23379
0.242114
0.250939
0.260317
0.270273
0.280802
0.291868
0.303403
0.315309
0.327451
0.339665
0.351761
0.363531
0.374755
0.385224
0.394751
0.403194
0.410487
0.416675
0.42196
0.426771
0.431889
0.438699
0.449239
0.466248
0.493466
0.535642
0.598126
0.686028
0.8039
0.958724
1.16338
1.44245
1.82198
3.25194
0.144058
0.145247
0.159408
0.171307
0.181073
0.189225
0.196305
0.202776
0.208996
0.215232
0.221677
0.22847
0.235713
0.243471
0.251784
0.260661
0.270087
0.280014
0.290365
0.301034
0.311882
0.322744
0.333432
0.343743
0.353475
0.362432
0.370454
0.377429
0.383329
0.388241
0.392419
0.396354
0.400891
0.407446
0.41811
0.435743
0.464229
0.508452
0.573823
0.665221
0.786119
0.941146
1.14717
1.46094
1.99243
3.96789
0.159215
0.156335
0.168173
0.177967
0.185883
0.192459
0.198201
0.203519
0.208722
0.214037
0.21963
0.225621
0.232092
0.239098
0.246664
0.25479
0.263449
0.272583
0.282108
0.291908
0.301841
0.311737
0.321409
0.330659
0.339293
0.34713
0.354028
0.359902
0.364754
0.36871
0.37207
0.375382
0.379556
0.386058
0.397054
0.415534
0.445556
0.492248
0.561379
0.658327
0.787041
0.95225
1.17338
1.52306
2.17439
4.66816
0.172488
0.165666
0.175571
0.183758
0.190254
0.195602
0.200296
0.204717
0.209139
0.213758
0.218717
0.224118
0.23003
0.236494
0.243526
0.251117
0.259229
0.267797
0.276727
0.285898
0.29516
0.304341
0.313253
0.321701
0.329496
0.336471
0.342499
0.347518
0.351558
0.354781
0.357532
0.36041
0.36439
0.371002
0.382496
0.402004
0.433789
0.483313
0.556941
0.661078
0.801201
0.983776
1.23058
1.62139
2.37666
5.4144
0.183943
0.173308
0.181471
0.18841
0.193843
0.19827
0.202175
0.205921
0.209757
0.213859
0.218353
0.223325
0.228834
0.234911
0.241563
0.248772
0.256492
0.264652
0.273149
0.281856
0.290617
0.299256
0.307585
0.31541
0.322547
0.32884
0.334176
0.338513
0.34191
0.344561
0.346852
0.349437
0.353352
0.360194
0.37231
0.392977
0.426691
0.479326
0.558025
0.670611
0.824851
1.03015
1.31119
1.75102
2.60823
6.23068
0.193766
0.179425
0.185901
0.19183
0.196478
0.200247
0.203592
0.206858
0.21028
0.214018
0.218186
0.22286
0.228089
0.233898
0.240287
0.247229
0.254674
0.262542
0.270726
0.279089
0.287473
0.295698
0.303572
0.310903
0.317513
0.323253
0.328026
0.331808
0.334684
0.33688
0.338822
0.341214
0.345155
0.352311
0.365128
0.387032
0.42277
0.478686
0.56283
0.684734
0.855036
1.08712
1.40973
1.90864
2.87869
7.15503
0.20221
0.184212
0.188971
0.194033
0.198106
0.201431
0.204412
0.207371
0.210529
0.214036
0.217997
0.222482
0.227534
0.233172
0.239391
0.246159
0.253419
0.261086
0.269046
0.277159
0.28526
0.293165
0.300681
0.307617
0.313797
0.319081
0.323386
0.326706
0.32915
0.330975
0.332646
0.334916
0.338943
0.346461
0.360017
0.383178
0.420955
0.480189
0.569921
0.701579
0.889114
1.15085
1.52142
2.09154
3.19931
8.21925
0.209551
0.187869
0.190829
0.195103
0.198748
0.201796
0.204576
0.207375
0.2104
0.213792
0.21765
0.22204
0.227001
0.232549
0.238675
0.245343
0.252491
0.260029
0.267839
0.275774
0.283666
0.291326
0.298559
0.305174
0.310999
0.315902
0.31981
0.322736
0.324813
0.326327
0.327782
0.329976
0.334122
0.342024
0.356311
0.380695
0.420438
0.482881
0.578078
0.719439
0.924508
1.21742
1.64104
2.29629
3.58497
9.47191
0.216058
0.19058
0.191638
0.195161
0.198477
0.201372
0.204077
0.206837
0.209839
0.213214
0.217059
0.221435
0.22638
0.231907
0.238004
0.244633
0.25173
0.259199
0.266917
0.274734
0.282476
0.289951
0.296961
0.303315
0.308843
0.313421
0.316986
0.31957
0.321327
0.322572
0.323846
0.325988
0.330266
0.338541
0.353519
0.379037
0.420588
0.485981
0.586239
0.736707
0.958592
1.28244
1.76179
2.51652
4.05309
10.9849
0.221983
0.192518
0.19156
0.194345
0.197394
0.200222
0.202947
0.205762
0.208829
0.212271
0.216177
0.220607
0.225598
0.231162
0.237286
0.243929
0.251024
0.258473
0.266149
0.273896
0.281537
0.288876
0.295712
0.301853
0.307131
0.311427
0.314691
0.31697
0.31844
0.319445
0.320558
0.32266
0.327062
0.335681
0.351279
0.377794
0.420915
0.488855
0.593486
0.751899
0.988713
1.34091
1.87422
2.73832
4.59893
12.8526
0.22755
0.193819
0.190743
0.192795
0.195615
0.198432
0.201243
0.204182
0.207384
0.210957
0.214985
0.219526
0.224615
0.230265
0.23646
0.24316
0.250295
0.257764
0.265438
0.273157
0.280738
0.287982
0.294684
0.30065
0.305715
0.309765
0.31276
0.314762
0.315969
0.316751
0.317712
0.319771
0.324279
0.333193
0.349316
0.376652
0.421038
0.490995
0.599061
0.763718
1.01237
1.38746
1.96586
2.9326
5.13985
15.2651
0.0825745
0.184484
0.254667
0.303585
0.338485
0.363288
0.380798
0.391449
0.396719
0.398024
0.39656
0.393264
0.388875
0.383961
0.378936
0.374087
0.369567
0.365443
0.361723
0.35836
0.355292
0.352434
0.349686
0.34692
0.343988
0.340735
0.336886
0.332114
0.32601
0.318062
0.307604
0.293786
0.275514
0.251357
0.21939
0.177167
0.121933
0.0477815
0.0988777
0.136153
0.172787
0.196183
0.211518
0.221532
0.228051
0.231182
0.231689
0.230422
0.228085
0.225205
0.222156
0.219188
0.216455
0.214031
0.211925
0.21011
0.208548
0.207185
0.205974
0.204862
0.203796
0.202712
0.201536
0.200187
0.198508
0.19632
0.193393
0.189425
0.184017
0.176653
0.166679
0.15326
0.135359
0.111696
0.0790512
0.0179804
0.136629
0.131382
0.154362
0.169265
0.178158
0.183126
0.18552
0.185563
0.183914
0.181266
0.178173
0.175022
0.172056
0.169416
0.167161
0.165293
0.163774
0.162544
0.161549
0.160729
0.160035
0.159423
0.158851
0.158273
0.157638
0.156888
0.155923
0.154617
0.152813
0.150296
0.146781
0.141897
0.135171
0.126018
0.113765
0.0978001
0.0776061
0.018563
0.173778
0.137488
0.152914
0.163743
0.169263
0.171209
0.17084
0.168561
0.165078
0.161059
0.157002
0.153221
0.149887
0.147071
0.144774
0.142955
0.141543
0.140459
0.13963
0.138991
0.138485
0.138068
0.137699
0.137341
0.136952
0.136486
0.13587
0.135012
0.13379
0.132044
0.129553
0.126033
0.121125
0.1144
0.105428
0.0940643
0.0817457
0.0894996
0.21193
0.149524
0.160203
0.168589
0.171617
0.170931
0.167938
0.163282
0.157799
0.15219
0.146923
0.142257
0.138298
0.135055
0.13248
0.13049
0.128984
0.127864
0.127041
0.126438
0.125991
0.12565
0.125375
0.125128
0.124873
0.124572
0.124168
0.123589
0.122742
0.121497
0.119683
0.117077
0.113403
0.108353
0.101684
0.0935908
0.0864463
0.106557
0.25304
0.166871
0.174499
0.1811
0.18167
0.178071
0.172062
0.164608
0.156737
0.149206
0.142454
0.136673
0.131893
0.128056
0.125055
0.122765
0.121054
0.119799
0.118896
0.118254
0.117799
0.117475
0.117237
0.117049
0.116874
0.116681
0.116423
0.116044
0.115466
0.11459
0.113279
0.111359
0.10862
0.104854
0.0999693
0.0944297
0.0913134
0.122286
0.299607
0.190517
0.196213
0.201105
0.198667
0.191391
0.181581
0.170632
0.159816
0.149942
0.141393
0.134264
0.128486
0.123916
0.120378
0.117697
0.115705
0.114253
0.113215
0.112487
0.111983
0.111641
0.111408
0.111247
0.111123
0.111005
0.110856
0.110629
0.110264
0.10968
0.10877
0.107399
0.105417
0.102696
0.0992735
0.0958355
0.0960783
0.136749
0.355207
0.222708
0.226998
0.229641
0.223037
0.210827
0.196037
0.180627
0.166141
0.153409
0.142706
0.133981
0.127031
0.121601
0.117433
0.114289
0.111958
0.11026
0.109049
0.108202
0.107622
0.107236
0.106987
0.106833
0.10674
0.106677
0.106613
0.10651
0.106319
0.105978
0.105403
0.104494
0.103149
0.10131
0.0991246
0.0974702
0.100605
0.15
0.42529
0.267135
0.269552
0.268543
0.255871
0.236898
0.215513
0.194385
0.175329
0.159127
0.145863
0.135274
0.126972
0.120559
0.115673
0.112002
0.109285
0.107304
0.105889
0.104898
0.104221
0.103774
0.103493
0.103332
0.103255
0.103233
0.103238
0.103239
0.103197
0.103063
0.102777
0.102266
0.10147
0.100394
0.0992766
0.0991651
0.104836
0.162143
0.518387
0.329319
0.327569
0.320231
0.298661
0.270444
0.24037
0.211955
0.187246
0.16686
0.150577
0.137831
0.127988
0.120468
0.114781
0.110526
0.10738
0.105084
0.10344
0.102285
0.101493
0.10097
0.100645
0.100466
0.100395
0.100404
0.100465
0.100555
0.100642
0.10069
0.100657
0.100496
0.100183
0.0997744
0.0995916
0.100833
0.108756
0.173296
0.647881
0.417076
0.405612
0.387452
0.353083
0.312439
0.271092
0.233515
0.201886
0.176501
0.156687
0.141466
0.129883
0.121131
0.11456
0.109665
0.10605
0.103411
0.101517
0.100182
0.0992613
0.0986505
0.0982707
0.0980646
0.0979913
0.0980211
0.09813
0.0982961
0.0984972
0.0987075
0.0988989
0.0990485
0.0991631
0.0993461
0.0999891
0.102428
0.112374
0.183586
0.834263
0.540914
0.508775
0.472895
0.420747
0.363817
0.308172
0.259281
0.2193
0.188007
0.164102
0.146063
0.132532
0.122416
0.11488
0.109291
0.105171
0.102165
0.100002
0.09847
0.0974092
0.0967008
0.0962577
0.0960169
0.0959339
0.0959777
0.0961254
0.0963586
0.0966609
0.0970159
0.0974089
0.0978365
0.0983332
0.0990431
0.100421
0.10393
0.115709
0.193127
1.10748
0.713946
0.641987
0.578626
0.502919
0.425289
0.352015
0.289457
0.239561
0.201371
0.172769
0.151548
0.135848
0.124236
0.115652
0.109316
0.104656
0.10126
0.0988114
0.0970701
0.0958581
0.0950435
0.0945297
0.0942474
0.0941485
0.0942
0.0943795
0.0946713
0.0950639
0.0955488
0.0961234
0.0968012
0.097641
0.0988227
0.100859
0.105329
0.118784
0.202016
1.50904
0.94978
0.808636
0.705327
0.600251
0.497158
0.402849
0.324189
0.26273
0.216593
0.182653
0.157866
0.139769
0.126525
0.116809
0.109673
0.104443
0.100636
0.097886
0.0959241
0.0945518
0.0936234
0.0930323
0.092703
0.0925826
0.0926362
0.0928413
0.0931841
0.0936574
0.0942596
0.0949983
0.0959019
0.0970509
0.0986568
0.101284
0.106626
0.121624
0.210334
2.10685
1.25377
1.00762
0.851327
0.712235
0.579153
0.460668
0.363537
0.288848
0.233677
0.193728
0.164976
0.144246
0.12923
0.118298
0.110313
0.104484
0.100246
0.097181
0.0949883
0.093448
0.0923993
0.0917257
0.0913443
0.0911979
0.0912487
0.0914737
0.0918609
0.0924063
0.0931144
0.0940018
0.0951099
0.0965382
0.0985267
0.101688
0.107822
0.12425
0.21816
3.19568
1.61043
1.22706
1.0116
0.835523
0.670356
0.525227
0.407469
0.317919
0.252613
0.205969
0.17284
0.149237
0.132307
0.120076
0.111195
0.104742
0.100053
0.0966606
0.0942283
0.0925133
0.0913392
0.0905786
0.0901412
0.089965
0.0900085
0.0902485
0.090674
0.0912841
0.0920881
0.0931104
0.0944041
0.0960853
0.09842
0.102066
0.108923
0.126683
0.22556
0.233273
0.194685
0.18904
0.190104
0.192555
0.195317
0.198235
0.201362
0.204785
0.208587
0.212838
0.217588
0.222869
0.228691
0.235039
0.24187
0.24911
0.256658
0.264376
0.2721
0.279641
0.286792
0.293343
0.299095
0.303885
0.307603
0.310223
0.31183
0.31265
0.313091
0.313802
0.315748
0.320335
0.329571
0.346308
0.37459
0.420383
0.492503
0.604157
0.775245
1.03597
1.43408
2.0555
3.10428
5.28106
10.3831
0.242632
0.195077
0.185225
0.184696
0.18657
0.189269
0.192399
0.195879
0.199721
0.20396
0.208641
0.213801
0.219465
0.225638
0.232303
0.239417
0.246906
0.254661
0.262543
0.270378
0.277967
0.285091
0.29153
0.297076
0.301558
0.304874
0.307011
0.308077
0.308336
0.30824
0.308482
0.310071
0.314439
0.323597
0.340367
0.368656
0.414263
0.485782
0.596107
0.764601
1.02025
1.40723
1.99917
2.94963
4.64384
7.68075
0.252145
0.194585
0.180588
0.178396
0.179603
0.182168
0.18547
0.189292
0.193561
0.198262
0.203407
0.209016
0.215102
0.221668
0.228693
0.236133
0.243914
0.251923
0.260017
0.268014
0.275702
0.282848
0.289214
0.294576
0.298753
0.301639
0.303228
0.303652
0.303204
0.30237
0.301874
0.302734
0.306359
0.314686
0.330381
0.357114
0.400161
0.467404
0.570543
0.726864
0.9615
1.31069
1.82927
2.61594
3.87749
5.86981
0.262146
0.193545
0.175626
0.171774
0.172251
0.174607
0.178007
0.182105
0.186745
0.191859
0.197427
0.203447
0.209924
0.216852
0.224211
0.231956
0.240011
0.248263
0.256564
0.264721
0.272511
0.27968
0.285968
0.291125
0.294952
0.29733
0.298257
0.297882
0.296526
0.294704
0.293151
0.292872
0.295203
0.301935
0.315486
0.339173
0.377537
0.43744
0.528927
0.666607
0.871218
1.17143
1.60729
2.24156
3.18726
4.54361
0.272947
0.192234
0.170653
0.165189
0.164921
0.167023
0.170455
0.174747
0.179666
0.185096
0.190987
0.19732
0.204087
0.211283
0.218884
0.226847
0.235097
0.243521
0.251966
0.260232
0.268079
0.275231
0.281398
0.286299
0.289702
0.29147
0.291602
0.290262
0.287804
0.284768
0.281899
0.280161
0.280789
0.285376
0.296033
0.315636
0.347956
0.398728
0.476264
0.592532
0.764367
1.01455
1.37322
1.88192
2.60265
3.56875
0.284878
0.190929
0.165899
0.158901
0.157925
0.159764
0.163177
0.167576
0.172661
0.178275
0.184344
0.190838
0.197744
0.205053
0.212747
0.220783
0.229091
0.237559
0.246031
0.254302
0.262116
0.269175
0.275151
0.279723
0.28262
0.283677
0.282893
0.280459
0.276767
0.272398
0.268103
0.264802
0.263607
0.265894
0.273436
0.288638
0.31464
0.356102
0.419809
0.515499
0.656898
0.862536
1.15607
1.56682
2.13013
2.85356
0.298397
0.189922
0.161555
0.153129
0.151522
0.153117
0.156466
0.160877
0.165993
0.17163
0.177699
0.184166
0.191016
0.198245
0.205837
0.213756
0.221936
0.23027
0.238605
0.246731
0.254383
0.261237
0.266934
0.2711
0.273417
0.273689
0.271919
0.268342
0.263411
0.257765
0.252173
0.247511
0.244766
0.245095
0.249948
0.261275
0.281843
0.315411
0.367711
0.446938
0.564574
0.736259
0.981526
1.32211
1.77882
2.34747
0.31421
0.189545
0.157821
0.148092
0.145947
0.14731
0.150535
0.154841
0.159832
0.16531
0.171182
0.177412
0.183994
0.190925
0.198197
0.205781
0.213616
0.221606
0.2296
0.237395
0.24472
0.251238
0.256556
0.26025
0.261944
0.261411
0.258673
0.254033
0.248042
0.241416
0.234955
0.229491
0.225882
0.225082
0.228274
0.237095
0.253974
0.282263
0.327309
0.396918
0.501026
0.653254
0.870936
1.16985
1.55971
2.02828
0.333349
0.190128
0.154916
0.144007
0.141384
0.142485
0.145488
0.149546
0.154241
0.159371
0.164846
0.170636
0.176738
0.183158
0.189893
0.19692
0.204188
0.211607
0.219042
0.226296
0.233109
0.239143
0.243985
0.247164
0.248242
0.246966
0.243398
0.237953
0.231311
0.224287
0.217702
0.212323
0.208867
0.208099
0.210989
0.218963
0.23442
0.260075
0.300588
0.366451
0.469442
0.619185
0.834399
1.12477
1.48676
1.89571
0.357082
0.191857
0.153042
0.141038
0.137912
0.138653
0.141295
0.144946
0.149175
0.153783
0.158686
0.16386
0.169305
0.175032
0.181043
0.187319
0.193818
0.20046
0.207122
0.213629
0.21974
0.225139
0.229418
0.232072
0.232604
0.230745
0.226637
0.22085
0.214226
0.20766
0.201957
0.197754
0.195633
0.196065
0.199715
0.207276
0.221793
0.250492
0.293733
0.358135
0.461963
0.61379
0.836803
1.14113
1.51531
1.90714
0.386579
0.194547
0.1523
0.139199
0.135438
0.13566
0.137784
0.140878
0.144504
0.148462
0.152671
0.157109
0.161778
0.166691
0.17185
0.177241
0.182824
0.188532
0.194256
0.199843
0.205087
0.209718
0.213367
0.21552
0.215637
0.213458
0.209257
0.203804
0.198091
0.193045
0.189394
0.18745
0.18748
0.189392
0.194935
0.205978
0.222287
0.251865
0.296172
0.364371
0.471147
0.615981
0.819754
1.1114
1.48897
1.91999
0.422514
0.197913
0.152687
0.138295
0.133673
0.133202
0.134679
0.137118
0.140066
0.143317
0.146786
0.150447
0.1543
0.158358
0.162623
0.16708
0.171694
0.176402
0.181113
0.185697
0.189982
0.193764
0.196747
0.198445
0.198306
0.196148
0.192438
0.188171
0.184431
0.182054
0.181329
0.181885
0.185043
0.189309
0.19947
0.27892
0.334074
0.384393
0.443108
0.518873
0.612734
0.728157
0.883019
1.10641
1.42209
1.83107
0.465449
0.203114
0.154202
0.137972
0.132214
0.130928
0.131704
0.133476
0.135756
0.138325
0.14109
0.144017
0.147103
0.150357
0.153782
0.157363
0.161064
0.164834
0.168595
0.172233
0.175605
0.178567
0.180908
0.182189
0.181939
0.180168
0.177632
0.175574
0.174802
0.175397
0.177918
0.1814
0.196971
0.277053
0.338618
0.404314
0.460713
0.5116
0.565664
0.631202
0.712949
0.815716
0.950379
1.13681
1.3966
1.7318
0.506574
0.210846
0.156163
0.137666
0.130716
0.128605
0.128729
0.129904
0.131602
0.133586
0.135753
0.13806
0.140499
0.143081
0.145809
0.148666
0.151624
0.154641
0.157657
0.160573
0.163264
0.165638
0.167538
0.168478
0.168229
0.167219
0.166569
0.167241
0.169333
0.173415
0.182329
0.267588
0.338528
0.409636
0.471595
0.528134
0.579006
0.626601
0.678118
0.74045
0.819592
0.920129
1.04798
1.21447
1.43464
1.71306
0.525879
0.219085
0.158208
0.137148
0.129049
0.126239
0.125823
0.126516
0.127753
0.129281
0.130988
0.132825
0.134781
0.136868
0.139091
0.14144
0.143898
0.146446
0.14905
0.151632
0.154099
0.156434
0.158378
0.159197
0.159073
0.158983
0.160096
0.163464
0.168764
0.238505
0.318664
0.400852
0.47413
0.538981
0.5943
0.642375
0.686964
0.732423
0.785464
0.852858
0.940585
1.05211
1.18905
1.35489
1.55664
1.79621
0.509055
0.230267
0.161029
0.13663
0.127461
0.124133
0.123309
0.12363
0.124514
0.125701
0.127076
0.12859
0.130239
0.13203
0.133971
0.136069
0.13833
0.140752
0.143308
0.145931
0.14858
0.151294
0.153922
0.155023
0.15508
0.15593
0.159204
0.170685
0.275971
0.370666
0.456632
0.534066
0.599891
0.653555
0.696708
0.733696
0.770627
0.813894
0.870535
0.9482
1.05315
1.18825
1.35187
1.5399
1.74991
1.97875
0.477902
0.258917
0.167601
0.136638
0.126363
0.122717
0.121647
0.121724
0.122369
0.123327
0.124484
0.125801
0.127292
0.128951
0.130779
0.132819
0.135114
0.137709
0.140638
0.143908
0.147659
0.15144
0.154892
0.156361
0.156679
0.159876
0.237798
0.318019
0.416256
0.508575
0.588158
0.653238
0.703089
0.739492
0.766681
0.790904
0.819582
0.860382
0.920993
1.0101
1.13504
1.29954
1.50108
1.73082
1.98028
2.24706
0.508841
0.275323
0.17382
0.138787
0.126949
0.12291
0.121737
0.12178
0.1224
0.123217
0.124172
0.125397
0.126914
0.128752
0.130856
0.133
0.135437
0.138302
0.141843
0.147008
0.162869
0.197111
0.222402
0.244399
0.269903
0.30942
0.37754
0.465498
0.556846
0.636757
0.699236
0.743803
0.772353
0.789125
0.80014
0.812549
0.834097
0.872783
0.936934
1.03583
1.17827
1.37013
1.61048
1.89047
2.20583
2.57931
0.767212
0.406458
0.272303
0.191921
0.150907
0.134843
0.128754
0.126795
0.126545
0.127048
0.128121
0.129502
0.132859
0.137625
0.144813
0.154257
0.165994
0.179534
0.194979
0.212834
0.234842
0.264481
0.298264
0.335581
0.38092
0.440643
0.515924
0.599235
0.676112
0.735909
0.775523
0.796814
0.804053
0.803139
0.800874
0.804445
0.821227
0.85891
0.925924
1.03182
1.18666
1.39857
1.66929
1.99316
2.38184
2.92529
0.983351
0.515124
0.333434
0.222718
0.170658
0.147703
0.137984
0.134664
0.134765
0.136968
0.140681
0.145711
0.1521
0.160031
0.169866
0.182138
0.197475
0.216322
0.239089
0.266232
0.298373
0.336273
0.379717
0.429058
0.486588
0.55409
0.628057
0.699348
0.757007
0.794483
0.811517
0.812026
0.801897
0.787864
0.77676
0.775247
0.789972
0.827951
0.897185
1.00708
1.16824
1.39015
1.67647
2.02535
2.47032
3.20763
0.911708
0.476813
0.324228
0.231538
0.18278
0.158506
0.147238
0.143138
0.143329
0.146407
0.151725
0.159042
0.168379
0.179917
0.19396
0.210939
0.231401
0.25593
0.285108
0.319453
0.35933
0.404815
0.455673
0.511902
0.573697
0.639578
0.704157
0.759018
0.796441
0.813208
0.81127
0.79596
0.773932
0.752
0.736605
0.733453
0.748253
0.787268
0.857952
0.969209
1.13107
1.35258
1.63826
1.99356
2.46978
3.36263
0.744417
0.386584
0.289862
0.225019
0.186675
0.165735
0.155563
0.152161
0.153289
0.157744
0.164929
0.174609
0.186783
0.201627
0.21944
0.240627
0.265675
0.295117
0.329468
0.36911
0.414146
0.464234
0.518597
0.57625
0.635675
0.693651
0.744555
0.781732
0.800396
0.79991
0.783768
0.758034
0.72955
0.704428
0.688062
0.685301
0.700993
0.740622
0.810923
0.920137
1.07787
1.29337
1.57318
1.92628
2.41027
3.34667
0.660834
0.34309
0.262854
0.214905
0.186243
0.17025
0.162756
0.161165
0.163913
0.170102
0.179267
0.191225
0.205991
0.223733
0.244735
0.269366
0.298041
0.331173
0.369098
0.411945
0.459468
0.510888
0.564843
0.619439
0.672044
0.718808
0.754786
0.77533
0.778158
0.764555
0.739203
0.708108
0.677276
0.651974
0.636657
0.635282
0.651834
0.690947
0.758445
0.861668
1.00974
1.21276
1.48107
1.83022
2.31871
3.2016
0.647848
0.327863
0.24622
0.206341
0.184501
0.173125
0.168753
0.1695
0.17426
0.182393
0.193565
0.207655
0.224698
0.244849
0.268358
0.295531
0.326684
0.362081
0.401841
0.445802
0.493358
0.543308
0.593793
0.642311
0.68572
0.72026
0.742075
0.748418
0.739094
0.716901
0.686589
0.653617
0.623123
0.599446
0.586141
0.586313
0.603108
0.640302
0.702592
0.796351
0.930058
1.11464
1.36357
1.69596
2.15866
2.92525
0.673145
0.325612
0.237209
0.200576
0.182954
0.17514
0.173611
0.176706
0.18354
0.193619
0.206697
0.22269
0.241636
0.263668
0.288982
0.3178
0.350321
0.386641
0.426658
0.469925
0.515519
0.561894
0.60686
0.64765
0.681072
0.703934
0.71349
0.708912
0.691438
0.664345
0.63215
0.599618
0.571013
0.549791
0.538686
0.540033
0.556236
0.590099
0.645302
0.727111
0.843075
1.00417
1.22568
1.52841
1.94597
2.56815
0.720028
0.329039
0.233051
0.197361
0.182158
0.17683
0.177569
0.182708
0.191414
0.203249
0.217994
0.235574
0.256007
0.279382
0.305829
0.335473
0.36838
0.404477
0.443452
0.484611
0.526785
0.568201
0.606517
0.639055
0.662738
0.675325
0.675463
0.663378
0.641032
0.611811
0.579819
0.549097
0.523093
0.504485
0.495302
0.497219
0.511976
0.541474
0.588475
0.657077
0.753564
0.887817
1.07543
1.33792
1.70368
2.21522
0.777427
0.334352
0.23179
0.196135
0.182257
0.178558
0.180954
0.187694
0.19792
0.211185
0.227261
0.246047
0.267523
0.291717
0.318677
0.348426
0.380892
0.415839
0.452785
0.490819
0.528626
0.564369
0.59558
0.619923
0.63515
0.639712
0.633141
0.616355
0.591633
0.562221
0.531718
0.503477
0.480231
0.464005
0.456249
0.458156
0.470769
0.495366
0.533858
0.589215
0.666278
0.773115
0.923016
1.1367
1.44164
1.86937
0.837989
0.339882
0.232313
0.196427
0.183244
0.18055
0.184064
0.191944
0.203281
0.217591
0.234608
0.254189
0.27626
0.300774
0.327691
0.356932
0.388291
0.421375
0.455603
0.489865
0.522704
0.552372
0.576821
0.594058
0.60244
0.601061
0.590057
0.570729
0.545405
0.517042
0.488713
0.463152
0.442494
0.428246
0.421417
0.422778
0.432878
0.452499
0.482841
0.525891
0.585076
0.666367
0.779917
0.94203
1.17626
1.5118
0.897128
0.34513
0.234077
0.197909
0.185045
0.182913
0.187107
0.195709
0.207756
0.222717
0.24028
0.260249
0.282491
0.30687
0.333257
0.361487
0.39124
0.421929
0.452843
0.482905
0.510744
0.534749
0.553207
0.564553
0.567661
0.562129
0.548476
0.528162
0.503399
0.476785
0.450892
0.427921
0.409529
0.396817
0.390488
0.390937
0.398425
0.41334
0.436338
0.46862
0.512413
0.571743
0.653598
0.769337
0.935652
1.17389
0.952187
0.350291
0.236837
0.20034
0.187543
0.185656
0.190185
0.199154
0.211553
0.226803
0.244541
0.264518
0.286554
0.310406
0.335849
0.362606
0.390258
0.418209
0.445666
0.47159
0.494726
0.513679
0.527065
0.533721
0.532944
0.524694
0.509708
0.489455
0.465939
0.441389
0.417924
0.397304
0.380807
0.369231
0.363061
0.362427
0.367401
0.378092
0.394771
0.418065
0.449286
0.490931
0.54739
0.625756
0.736214
0.891284
1.00194
0.355835
0.240456
0.203503
0.19058
0.188702
0.193302
0.202354
0.214804
0.23003
0.24762
0.267264
0.288698
0.311642
0.335798
0.360799
0.386167
0.411276
0.435332
0.457366
0.47627
0.490881
0.500123
0.503178
0.499667
0.489794
0.47439
0.454846
0.432922
0.410494
0.389295
0.370724
0.35577
0.34502
0.338764
0.337008
0.339689
0.346736
0.358165
0.374217
0.395573
0.423652
0.46101
0.511718
0.581347
0.676087
1.04639
0.3624
0.244787
0.207161
0.193951
0.19191
0.196376
0.205273
0.217513
0.232438
0.249591
0.268613
0.289183
0.310972
0.333623
0.356715
0.379734
0.402049
0.422899
0.441408
0.456629
0.467623
0.473581
0.473963
0.468629
0.457927
0.442706
0.424228
0.404011
0.383612
0.364441
0.347613
0.333893
0.32372
0.31725
0.314422
0.315092
0.319085
0.326265
0.336633
0.350466
0.368493
0.392095
0.423455
0.465362
0.520403
1.08489
0.370192
0.249313
0.210888
0.197325
0.195024
0.199221
0.2078
0.219642
0.23406
0.250563
0.268756
0.288271
0.308742
0.32977
0.350901
0.371609
0.391277
0.409202
0.424612
0.436714
0.444772
0.448198
0.446665
0.440199
0.429223
0.414551
0.397302
0.378762
0.36022
0.342819
0.32745
0.314713
0.304937
0.298196
0.294396
0.293356
0.294847
0.298653
0.304644
0.312858
0.323609
0.337586
0.355881
0.379782
0.410126
1.11392
0.376527
0.253285
0.214277
0.200406
0.197815
0.201669
0.209822
0.221137
0.234904
0.25061
0.267831
0.286171
0.305235
0.324598
0.343796
0.362304
0.379539
0.394864
0.407612
0.417134
0.422862
0.424388
0.421542
0.414452
0.403572
0.389652
0.373667
0.3567
0.339812
0.323933
0.309779
0.297826
0.288325
0.281304
0.276659
0.274197
0.273672
0.274841
0.277507
0.281583
0.287152
0.294516
0.304184
0.316693
0.332146
1.1337
0.380948
0.256362
0.217053
0.202967
0.200095
0.20357
0.211234
0.221936
0.234958
0.249772
0.265936
0.283038
0.300666
0.318387
0.335734
0.352203
0.367253
0.380314
0.390822
0.398251
0.402172
0.402314
0.398616
0.391268
0.380719
0.367647
0.35289
0.337355
0.321919
0.30734
0.2942
0.28288
0.273577
0.266298
0.26094
0.257318
0.255194
0.254323
0.25449
0.255549
0.257469
0.260348
0.264398
0.26981
0.276442
1.14449
0.383303
0.258351
0.219028
0.204832
0.201712
0.204799
0.211938
0.221979
0.234201
0.248071
0.26314
0.278988
0.295198
0.311339
0.326957
0.341575
0.354697
0.365823
0.374477
0.380239
0.38279
0.381959
0.377757
0.370406
0.360333
0.348136
0.334534
0.320286
0.306117
0.292649
0.280361
0.269565
0.260415
0.252917
0.246977
0.242426
0.239049
0.236618
0.234923
0.233802
0.233173
0.233037
0.233466
0.234507
0.235971
1.14662
0.383536
0.259139
0.220076
0.205879
0.20255
0.205256
0.211858
0.221216
0.232614
0.245521
0.25949
0.274102
0.288945
0.3036
0.317631
0.330595
0.342042
0.351537
0.358681
0.363138
0.364675
0.363192
0.358746
0.351568
0.342051
0.33072
0.318186
0.305087
0.292024
0.279513
0.267951
0.257601
0.248587
0.24092
0.234519
0.22924
0.224895
0.221283
0.218213
0.215531
0.213138
0.210996
0.209116
0.207494
0.205967
1.14053
0.381666
0.258675
0.220124
0.206026
0.202534
0.204875
0.210942
0.219614
0.230185
0.242135
0.255024
0.268443
0.281993
0.295269
0.307864
0.319367
0.329377
0.337513
0.343442
0.346896
0.347705
0.345818
0.341318
0.334431
0.325511
0.315015
0.303463
0.29139
0.279299
0.267623
0.256695
0.246738
0.237861
0.230078
0.223329
0.217495
0.212417
0.207925
0.203854
0.200067
0.196468
0.19301
0.189682
0.186465
0.183243
1.12681
0.377787
0.256966
0.219149
0.20524
0.201626
0.203622
0.209165
0.217159
0.226918
0.237933
0.249779
0.262064
0.274404
0.286417
0.297724
0.30795
0.316735
0.32375
0.328712
0.33141
0.331717
0.329614
0.325197
0.318677
0.310369
0.300669
0.290018
0.278869
0.267644
0.256709
0.246347
0.236753
0.228024
0.220184
0.21319
0.206947
0.20133
0.196197
0.191412
0.186859
0.182455
0.178155
0.173943
0.169806
0.165663
1.10624
0.372058
0.25407
0.217173
0.203527
0.199825
0.201497
0.206532
0.213866
0.222833
0.232946
0.243798
0.255014
0.266232
0.277097
0.287257
0.29637
0.304118
0.310212
0.314415
0.316553
0.316534
0.314356
0.310118
0.304013
0.296317
0.287371
0.277552
0.267241
0.256797
0.246532
0.23669
0.227446
0.218888
0.211048
0.203901
0.19738
0.191384
0.185803
0.180527
0.175462
0.170542
0.165729
0.16101
0.156378
0.151783
1.07973
0.364689
0.250085
0.214255
0.200928
0.197167
0.198532
0.203075
0.209769
0.217973
0.227223
0.237132
0.247347
0.257532
0.267355
0.276495
0.284643
0.291513
0.296854
0.300463
0.302197
0.301984
0.299835
0.295843
0.290179
0.283085
0.274853
0.265804
0.256263
0.246536
0.23689
0.227541
0.218643
0.210285
0.202503
0.19529
0.188601
0.182363
0.176491
0.1709
0.165518
0.160293
0.155198
0.150224
0.145372
0.140611
1.04827
0.355931
0.245145
0.21049
0.197519
0.193716
0.194788
0.198855
0.20493
0.212401
0.220827
0.229846
0.239129
0.248362
0.257241
0.265474
0.272781
0.278907
0.283631
0.286778
0.288226
0.28792
0.285872
0.282167
0.276956
0.270448
0.262892
0.254562
0.245736
0.236676
0.227615
0.218743
0.2102
0.202074
0.194407
0.187207
0.18045
0.174085
0.168051
0.162286
0.156737
0.151366
0.146155
0.1411
0.136206
0.131455
1.0129
0.346061
0.23941
0.205997
0.1934
0.189561
0.190348
0.193953
0.19943
0.206197
0.213841
0.222021
0.230433
0.23879
0.246813
0.254235
0.260805
0.266296
0.270512
0.273298
0.274549
0.27422
0.272322
0.268929
0.264173
0.25823
0.251314
0.24366
0.235505
0.227076
0.218575
0.210173
0.201999
0.194141
0.186644
0.17953
0.172792
0.1664
0.160314