/*--------------------------------*- C++ -*----------------------------------*\
  =========                 |
  \\      /  F ield         | OpenFOAM: The Open Source CFD Toolbox
   \\    /   O peration     | Website:  https://openfoam.org
    \\  /    A nd           | Version:  7
     \\/     M anipulation  |
\*---------------------------------------------------------------------------*/
FoamFile
{
    version     2.0;
    format      ascii;
    class       volScalarField;
    location    "0.25";
    object      k;
}
// * * * * * * * * * * * * * * * * * * * * * * * * * * * * * * * * * * * * * //

dimensions      [0 2 -2 0 0 0 0];

internalField   nonuniform List<scalar> 
9072
(
0.0031212
0.0063488
0.00985361
0.0126553
0.0148939
0.016805
0.0185019
0.0200593
0.0215288
0.0229469
0.0243399
0.0257274
0.0271235
0.0285385
0.0299793
0.031449
0.0329477
0.0344721
0.0360152
0.0375665
0.0391121
0.0406345
0.0421135
0.0435259
0.0448466
0.0460489
0.0471055
0.0479888
0.0486719
0.0491288
0.0493346
0.0492633
0.0488785
0.0482551
0.0473808
0.0461887
0.0446221
0.0426158
0.0400874
0.0369529
0.0331757
0.0289053
0.0255615
0.0259223
0.0246724
0.0245102
0.00494773
0.0136446
0.0205122
0.0258594
0.0301878
0.0338221
0.0369913
0.0398564
0.0425281
0.0450833
0.047576
0.050045
0.0525178
0.0550131
0.0575422
0.0601092
0.0627118
0.0653407
0.0679801
0.0706077
0.073195
0.0757083
0.0781089
0.0803552
0.0824034
0.0842095
0.0857313
0.0869302
0.0877736
0.0882368
0.0883058
0.087979
0.0872647
0.0861235
0.0846408
0.0828828
0.0809441
0.0789487
0.0770797
0.0756411
0.0750726
0.0755439
0.0743822
0.0691587
0.0538966
0.0391628
0.00635999
0.0173874
0.0255438
0.0320802
0.0374454
0.0419757
0.04593
0.0495002
0.052823
0.055995
0.0590846
0.0621408
0.0651976
0.0682779
0.0713946
0.0745518
0.0777449
0.0809611
0.0841794
0.087371
0.0905
0.0935242
0.0963964
0.0990661
0.101481
0.103592
0.10535
0.106715
0.107657
0.108159
0.10822
0.107862
0.10713
0.106068
0.104782
0.103386
0.102
0.100699
0.0994724
0.098293
0.0974223
0.097636
0.0976999
0.0948005
0.0806952
0.04951
0.00775054
0.0201715
0.0291353
0.0363696
0.0423788
0.0474946
0.0519793
0.0560349
0.05981
0.0634121
0.0669183
0.0703837
0.0738467
0.0773322
0.080854
0.0844152
0.0880094
0.0916206
0.0952237
0.098785
0.102263
0.10561
0.108773
0.111695
0.114321
0.116596
0.118472
0.119909
0.120882
0.121384
0.12143
0.121067
0.120375
0.119466
0.118513
0.117707
0.117231
0.117172
0.117385
0.117427
0.116791
0.115617
0.114129
0.112204
0.102875
0.0620958
0.00897635
0.0225994
0.0321187
0.0397992
0.0462427
0.0517801
0.0566663
0.0611017
0.065238
0.0691874
0.0730315
0.0768292
0.0806213
0.084434
0.088281
0.0921644
0.0960756
0.0999959
0.103897
0.10774
0.11148
0.115063
0.118434
0.12153
0.124294
0.126669
0.128608
0.130073
0.131047
0.131533
0.131563
0.131209
0.130587
0.129863
0.129278
0.129098
0.129577
0.130836
0.132673
0.134392
0.134915
0.133575
0.131011
0.129652
0.124201
0.0743885
0.0100213
0.0247561
0.0347181
0.0427097
0.0494596
0.0553122
0.0605154
0.0652634
0.0697055
0.0739539
0.0780918
0.0821794
0.0862586
0.0903559
0.0944843
0.0986448
0.102827
0.107009
0.111158
0.115235
0.119187
0.122961
0.126493
0.129721
0.132584
0.135026
0.137
0.138474
0.139437
0.139905
0.139928
0.139602
0.139079
0.138573
0.138384
0.138848
0.140284
0.142853
0.14634
0.149934
0.152245
0.152049
0.149833
0.149117
0.145534
0.0870766
0.0108969
0.0266406
0.0369913
0.0452299
0.0522127
0.0583111
0.0637725
0.0687851
0.0734935
0.0780076
0.0824094
0.0867591
0.0910981
0.0954526
0.0998346
0.104244
0.108667
0.11308
0.117448
0.121726
0.125861
0.129794
0.13346
0.136794
0.139734
0.142223
0.144219
0.145693
0.146644
0.147099
0.147128
0.146852
0.146455
0.146198
0.146433
0.147559
0.149949
0.153811
0.15895
0.164526
0.169029
0.170899
0.170227
0.170349
0.166809
0.0995088
0.0116493
0.0282494
0.0389494
0.0474087
0.0545874
0.0608901
0.0665704
0.0718133
0.0767589
0.0815135
0.0861571
0.0907482
0.0953273
0.0999192
0.104535
0.109172
0.113815
0.118438
0.123002
0.127461
0.131758
0.13583
0.139611
0.143033
0.146035
0.148561
0.150571
0.152043
0.152984
0.153435
0.153484
0.153278
0.153034
0.153052
0.153736
0.155536
0.15888
0.164021
0.17081
0.178449
0.185417
0.189962
0.191658
0.192827
0.188018
0.110907
0.0122886
0.0295906
0.0405996
0.0492681
0.0566275
0.063113
0.068988
0.0744377
0.0795991
0.0845751
0.089443
0.0942593
0.0990629
0.103877
0.108711
0.113559
0.118407
0.123223
0.127968
0.132591
0.137033
0.14123
0.145112
0.148611
0.151665
0.15422
0.15624
0.157709
0.158644
0.159099
0.159182
0.159064
0.158994
0.159311
0.160462
0.162944
0.167235
0.17364
0.182078
0.191838
0.201468
0.209106
0.213752
0.216245
0.209439
0.122431
0.0128272
0.0306839
0.0419567
0.0508258
0.0583609
0.0650196
0.0710759
0.0767175
0.0820796
0.0872626
0.0923411
0.0973695
0.102385
0.107408
0.112447
0.117495
0.122533
0.127529
0.132441
0.137216
0.141792
0.146101
0.150073
0.15364
0.156739
0.159318
0.161345
0.162812
0.163744
0.164212
0.164339
0.164323
0.164443
0.165074
0.166701
0.169865
0.17509
0.182739
0.192814
0.20473
0.217155
0.228186
0.236241
0.240452
0.231481
0.134426
0.0132801
0.0315556
0.043044
0.0521025
0.0598108
0.0666393
0.0728705
0.078695
0.0842475
0.0896266
0.0949049
0.100135
0.10535
0.110572
0.115805
0.121041
0.126258
0.131424
0.136492
0.141408
0.146106
0.150519
0.154573
0.1582
0.161337
0.163936
0.165968
0.167432
0.168364
0.168849
0.169029
0.169124
0.169444
0.170397
0.172499
0.176335
0.182471
0.191329
0.203012
0.217083
0.232379
0.247011
0.258879
0.265341
0.254623
0.14737
0.0136632
0.0322352
0.04389
0.0531229
0.0610009
0.0679976
0.0744005
0.0804025
0.0861385
0.0917058
0.0971752
0.102597
0.108004
0.113414
0.118832
0.124245
0.129633
0.134957
0.140172
0.145219
0.150032
0.154539
0.158668
0.162348
0.165519
0.168133
0.170167
0.171627
0.17256
0.173064
0.1733
0.173511
0.174033
0.175308
0.177877
0.182362
0.189371
0.199388
0.212621
0.228803
0.246973
0.265329
0.28137
0.290771
0.279404
0.161615
0.0139918
0.0327518
0.0445258
0.053915
0.0619565
0.069119
0.0756912
0.0818671
0.0877815
0.0935307
0.099184
0.10479
0.11038
0.115971
0.121563
0.127146
0.132694
0.138169
0.143521
0.148691
0.15361
0.158205
0.162402
0.166129
0.169327
0.171952
0.173984
0.175438
0.176371
0.176893
0.177185
0.177511
0.178233
0.179819
0.182835
0.187936
0.195766
0.206868
0.221561
0.239755
0.260719
0.282815
0.30332
0.316498
0.306476
0.177612
0.0142798
0.0331334
0.0449829
0.0545086
0.0627042
0.0700279
0.0767661
0.0831124
0.0892007
0.0951264
0.100957
0.106741
0.112507
0.118269
0.124029
0.129772
0.135472
0.141089
0.146571
0.151856
0.156874
0.16155
0.165808
0.169577
0.172797
0.175428
0.177454
0.178898
0.179826
0.180364
0.180708
0.181144
0.182055
0.183934
0.187369
0.193041
0.201622
0.213714
0.229739
0.249783
0.27336
0.299068
0.324177
0.342077
0.336571
0.196022
0.0145395
0.0334068
0.0452915
0.0549333
0.0632712
0.0707488
0.0776481
0.0841602
0.0904178
0.0965146
0.102517
0.108471
0.114405
0.120332
0.126251
0.132146
0.13799
0.143741
0.149345
0.154739
0.159849
0.164599
0.168912
0.172717
0.175954
0.178585
0.1806
0.182029
0.182947
0.183495
0.183884
0.184419
0.185504
0.187652
0.19147
0.197657
0.206908
0.219871
0.237062
0.258728
0.28462
0.313619
0.343187
0.36668
0.369605
0.217626
0.0147813
0.0335957
0.0454791
0.0552174
0.063684
0.0713061
0.0783593
0.0850315
0.0914527
0.0977148
0.103883
0.11
0.116095
0.122178
0.128248
0.134288
0.140267
0.146144
0.151863
0.157358
0.162554
0.167373
0.171735
0.17557
0.178819
0.181444
0.183442
0.184849
0.185751
0.1863
0.186725
0.187346
0.188586
0.190972
0.19513
0.201767
0.211592
0.225289
0.243447
0.266445
0.294236
0.325973
0.359416
0.38884
0.403474
0.244055
0.00625548
0.013998
0.0193274
0.0230424
0.0256941
0.0275805
0.0289147
0.0297281
0.0301323
0.0302344
0.030125
0.0298753
0.0295413
0.0291665
0.0287825
0.0284112
0.0280648
0.0277485
0.0274631
0.027205
0.0269695
0.0267502
0.0265394
0.0263274
0.0261029
0.0258542
0.0255602
0.025196
0.0247306
0.024125
0.023329
0.0222779
0.0208891
0.0190542
0.0166274
0.013423
0.00923442
0.00614335
0.00909563
0.0194113
0.0255112
0.0297308
0.0327787
0.0349865
0.0365427
0.0375177
0.0380301
0.0381912
0.0380979
0.0378289
0.0374479
0.0370058
0.0365413
0.0360829
0.0356484
0.035247
0.034883
0.0345537
0.0342536
0.0339749
0.0337076
0.0334397
0.0331567
0.0328425
0.0324747
0.0320252
0.0314592
0.0307333
0.0297932
0.0285688
0.0269692
0.0248742
0.0221165
0.0184431
0.0133371
0.00754824
0.0112913
0.0237815
0.030616
0.0352694
0.0385831
0.040958
0.0426077
0.0436356
0.0441671
0.0443203
0.0441978
0.0438835
0.0434453
0.0429375
0.0424027
0.0418723
0.0413674
0.0408992
0.0404737
0.0400891
0.0397391
0.0394147
0.0391043
0.0387939
0.0384663
0.0381025
0.037678
0.0371619
0.0365166
0.0356949
0.0346382
0.0332712
0.0314963
0.0291835
0.0261504
0.0221125
0.0164508
0.0078257
0.0132595
0.0276679
0.0352113
0.0402324
0.0437128
0.0461455
0.0477919
0.0487855
0.0492648
0.0493562
0.0491667
0.0487827
0.0482737
0.047695
0.0470899
0.0464913
0.0459215
0.0453928
0.0449122
0.0444783
0.0440842
0.0437197
0.0433718
0.0430246
0.0426594
0.0422542
0.0417831
0.0412129
0.0405036
0.0396055
0.0384567
0.0369784
0.0350684
0.03259
0.0293513
0.0250481
0.0190212
0.00850287
0.0151381
0.031425
0.039705
0.0450576
0.0486292
0.0510283
0.0525807
0.0534572
0.0538158
0.0537921
0.0534963
0.0530151
0.0524169
0.0517556
0.0510736
0.0504034
0.0497674
0.0491782
0.0486429
0.0481604
0.0477231
0.0473198
0.0469359
0.0465541
0.0461539
0.0457113
0.0451988
0.0445815
0.0438176
0.0428556
0.0416312
0.0400631
0.038046
0.035439
0.0320424
0.0275322
0.0211681
0.00955582
0.0170392
0.0353123
0.0443885
0.0500427
0.0536245
0.0558905
0.0572485
0.0579179
0.0580819
0.0578857
0.0574408
0.0568313
0.0561218
0.0553627
0.0545936
0.0538449
0.053138
0.0524853
0.0518931
0.0513605
0.0508789
0.050436
0.050016
0.0495998
0.0491657
0.0486877
0.0481367
0.0474768
0.0466646
0.045647
0.0443584
0.0427157
0.0406113
0.037901
0.0343782
0.0296969
0.0230267
0.0104758
0.0190719
0.0395762
0.0495171
0.0554291
0.0589166
0.0609286
0.0619736
0.0623329
0.0622195
0.0617875
0.0611464
0.0603744
0.0595288
0.0586542
0.0577855
0.0569494
0.0561654
0.0554444
0.054792
0.0542065
0.0536785
0.0531945
0.0527372
0.0522862
0.0518181
0.0513057
0.0507184
0.0500188
0.0491626
0.0480958
0.0467513
0.0450449
0.0428675
0.0400719
0.036444
0.0316147
0.0246649
0.0112872
0.0213651
0.0444883
0.055347
0.0614397
0.0646908
0.0662975
0.066887
0.0668166
0.0663325
0.0655947
0.0647062
0.0637343
0.0627259
0.0617165
0.060734
0.0598006
0.058932
0.0581371
0.0574203
0.0567786
0.0562015
0.0556742
0.0551781
0.0546914
0.0541891
0.0536427
0.0530201
0.0522831
0.0513863
0.0502749
0.0488809
0.0471192
0.0448793
0.0420112
0.0382931
0.0333319
0.0261246
0.0120061
0.0240908
0.0503705
0.0621518
0.0682915
0.0711149
0.0721283
0.0720924
0.0714549
0.0704954
0.0693753
0.068184
0.0669724
0.0657724
0.0646075
0.0634964
0.0624546
0.0614933
0.0606183
0.0598325
0.0591309
0.0585017
0.0579289
0.0573922
0.0568685
0.0563313
0.0557509
0.0550939
0.0543211
0.0533863
0.052234
0.0507955
0.0489849
0.0466906
0.0437594
0.0399616
0.0348804
0.0274349
0.0126465
0.0274878
0.0576128
0.070224
0.0761941
0.07834
0.0785329
0.0776744
0.0763145
0.0747647
0.0731792
0.071626
0.0701326
0.068711
0.0673688
0.0661133
0.0649515
0.063889
0.0629274
0.0620676
0.0613022
0.0606178
0.0599968
0.0594177
0.0588555
0.0582827
0.0576681
0.0569772
0.0561698
0.0551991
0.0540088
0.0525298
0.0506754
0.0483327
0.0453456
0.0414759
0.0362841
0.0286181
0.0132208
0.0318874
0.0666849
0.0798625
0.0853341
0.0864921
0.0856011
0.0836994
0.0814477
0.0791836
0.0770444
0.0750671
0.073248
0.0715734
0.0700314
0.0686151
0.0673213
0.0661483
0.0650936
0.0641548
0.0633215
0.0625786
0.0619068
0.0612831
0.060681
0.0600716
0.0594225
0.058698
0.057857
0.056852
0.0556261
0.0541097
0.0522156
0.0498292
0.0467916
0.0428562
0.0375618
0.0296915
0.0137399
0.0377283
0.0781372
0.0913458
0.0958491
0.0956584
0.093393
0.0902137
0.0868928
0.0837851
0.0810003
0.0785342
0.0763438
0.0743839
0.0726188
0.0710248
0.0695866
0.0682937
0.0671393
0.0661163
0.065211
0.0644063
0.063681
0.0630106
0.0623672
0.0617202
0.0610361
0.0602781
0.0594043
0.0583663
0.0571068
0.0555557
0.0536249
0.0511987
0.0481148
0.0441187
0.0387288
0.0306694
0.0142127
0.0455471
0.0925692
0.104887
0.107794
0.105872
0.101931
0.0972413
0.0926748
0.0885932
0.0850692
0.082048
0.0794397
0.0771612
0.0751494
0.0733604
0.071765
0.0703429
0.0690822
0.0679696
0.0669881
0.0661183
0.065337
0.0646179
0.0639315
0.0632459
0.0625264
0.061735
0.0608289
0.059759
0.0584675
0.0568838
0.0549189
0.052456
0.0493292
0.0452765
0.0397976
0.0315635
0.0146464
0.0559466
0.110497
0.120559
0.121098
0.117101
0.111191
0.104781
0.0988057
0.0936241
0.0892678
0.0856246
0.0825508
0.0799201
0.0776372
0.0756357
0.0738699
0.0723098
0.070936
0.0697285
0.0686668
0.0677286
0.0668887
0.0661188
0.0653879
0.0646627
0.0639073
0.0630826
0.0621448
0.061044
0.0597219
0.0581072
0.0561105
0.0536132
0.0504464
0.0463409
0.040779
0.0323837
0.0150465
0.0698457
0.131945
0.138133
0.135521
0.129214
0.121098
0.112809
0.105285
0.0988871
0.0936081
0.0892762
0.0856889
0.0826716
0.0800931
0.077861
0.0759118
0.0742052
0.0727113
0.0714037
0.0702577
0.069248
0.0683471
0.0675245
0.0667478
0.0659821
0.0651905
0.0643326
0.0633635
0.0622327
0.0608811
0.0592371
0.0572103
0.0546806
0.0514763
0.0473212
0.041682
0.0331383
0.0154181
0.0921627
0.15627
0.15674
0.150602
0.14187
0.13153
0.121277
0.112101
0.104385
0.0980978
0.0930114
0.0888624
0.0854239
0.0825247
0.0800438
0.0778992
0.0760373
0.0744164
0.0730035
0.0717694
0.0706853
0.069721
0.0688442
0.0680204
0.0672134
0.0663854
0.0654944
0.0644946
0.0633346
0.0619547
0.0602827
0.0582273
0.0556671
0.0524274
0.0482258
0.0425148
0.0338345
0.0157656
0.015028
0.0337395
0.0455937
0.0554388
0.0640647
0.0718782
0.0791444
0.0860436
0.0927006
0.0992027
0.105611
0.111967
0.118296
0.124606
0.130894
0.137142
0.143319
0.149378
0.155262
0.160902
0.166222
0.171139
0.175573
0.179449
0.182712
0.185326
0.187296
0.188666
0.18954
0.190088
0.190563
0.191309
0.192774
0.195505
0.200131
0.207362
0.217921
0.232526
0.251845
0.276402
0.306371
0.341197
0.378977
0.415358
0.439808
0.314826
0.0154269
0.0338291
0.0455803
0.055496
0.0642655
0.0722744
0.0797745
0.0869343
0.0938683
0.100656
0.107351
0.113991
0.120597
0.127175
0.13372
0.140211
0.146615
0.152884
0.158957
0.164763
0.170219
0.175239
0.179738
0.183639
0.186882
0.189439
0.191317
0.192578
0.193343
0.193805
0.194241
0.195021
0.196613
0.199568
0.204502
0.212073
0.222977
0.237907
0.257516
0.282323
0.312486
0.347383
0.384931
0.420655
0.442279
0.376269
0.0158275
0.0338518
0.0454879
0.0554202
0.0642684
0.0724098
0.0800862
0.0874537
0.094615
0.101639
0.108574
0.11545
0.122284
0.129082
0.135835
0.142523
0.14911
0.155546
0.161769
0.167703
0.17326
0.178348
0.182875
0.186758
0.189934
0.192373
0.19409
0.195156
0.195708
0.195958
0.196205
0.196831
0.198308
0.20118
0.206035
0.213466
0.224098
0.238554
0.257408
0.281091
0.309658
0.342357
0.377005
0.409229
0.429582
0.404055
0.0162439
0.033876
0.0454107
0.055317
0.0641865
0.0724017
0.0801968
0.0877151
0.0950467
0.10225
0.109365
0.116417
0.123421
0.130378
0.13728
0.144107
0.150821
0.157374
0.163698
0.169715
0.175331
0.180445
0.184958
0.188775
0.191828
0.194082
0.195554
0.196324
0.196545
0.196444
0.196333
0.1966
0.197709
0.200178
0.204556
0.211378
0.22116
0.234441
0.251702
0.273289
0.299207
0.328751
0.359997
0.389244
0.409968
0.405857
0.0166885
0.0339571
0.0454211
0.0552698
0.0641144
0.0723527
0.080212
0.0878222
0.0952605
0.102576
0.1098
0.116954
0.124051
0.131093
0.138071
0.144964
0.151738
0.158342
0.164708
0.170753
0.176378
0.181472
0.185923
0.189625
0.192495
0.194493
0.195636
0.196012
0.195786
0.195206
0.194589
0.194326
0.194859
0.196672
0.20026
0.206105
0.214617
0.226249
0.241405
0.260375
0.283197
0.309356
0.337368
0.364347
0.385657
0.392734
0.017174
0.0341473
0.0455804
0.0553513
0.0641374
0.0723568
0.0802286
0.087869
0.0953432
0.102691
0.109941
0.11711
0.124211
0.131247
0.138211
0.145085
0.151835
0.158411
0.164746
0.170754
0.176328
0.181348
0.185688
0.189224
0.191857
0.193534
0.194273
0.194172
0.193416
0.192268
0.191059
0.190172
0.190029
0.191066
0.193719
0.198413
0.205492
0.215329
0.228273
0.244596
0.264401
0.287409
0.312581
0.337755
0.359494
0.372617
0.0177174
0.0345007
0.0459473
0.05563
0.0643342
0.0724976
0.0803298
0.0879337
0.0953648
0.102658
0.109837
0.116922
0.123926
0.130853
0.137701
0.144455
0.151084
0.157541
0.16376
0.169651
0.175106
0.179994
0.184172
0.187496
0.189846
0.191155
0.19144
0.190817
0.189496
0.187767
0.185976
0.184502
0.183735
0.184066
0.18587
0.189508
0.195319
0.203601
0.214695
0.228884
0.246318
0.266895
0.289928
0.313756
0.33567
0.35193
0.0183447
0.0350835
0.0465851
0.0561729
0.0647732
0.0728411
0.0805754
0.0880683
0.0953693
0.102511
0.109518
0.116413
0.12321
0.129921
0.136545
0.143071
0.149473
0.155709
0.161714
0.167402
0.17266
0.177353
0.181321
0.184397
0.186436
0.187354
0.187175
0.18604
0.184201
0.181985
0.179756
0.177887
0.176737
0.176644
0.177932
0.180919
0.185938
0.193277
0.203332
0.216475
0.232765
0.252097
0.273977
0.29692
0.318507
0.335755
0.0190917
0.035983
0.0475607
0.0570357
0.0654988
0.0734195
0.0809871
0.0882869
0.095366
0.102258
0.108992
0.115592
0.122079
0.128466
0.134759
0.140951
0.147021
0.15293
0.15862
0.164009
0.168989
0.17342
0.177134
0.179941
0.181664
0.182206
0.181605
0.180047
0.177843
0.175365
0.172996
0.171092
0.169967
0.169907
0.171189
0.174103
0.179046
0.186166
0.195744
0.208772
0.225571
0.245256
0.26746
0.290324
0.311199
0.327513
0.0199994
0.0372991
0.0489207
0.0582346
0.0665049
0.0742113
0.0815349
0.0885572
0.0953265
0.10188
0.10825
0.114466
0.120552
0.126525
0.132394
0.138158
0.143798
0.149283
0.154561
0.159558
0.164175
0.16828
0.171702
0.174233
0.175666
0.175892
0.174978
0.173183
0.170891
0.168518
0.166448
0.164989
0.164406
0.164879
0.166587
0.169601
0.174609
0.183082
0.193811
0.206936
0.224238
0.244466
0.267481
0.291042
0.311792
0.326538
0.0210986
0.0390887
0.0506379
0.0597049
0.0677081
0.0751265
0.0821316
0.088803
0.0951916
0.101339
0.10728
0.113048
0.118669
0.124164
0.129544
0.134811
0.139951
0.144936
0.149724
0.15425
0.158429
0.162148
0.16525
0.167516
0.168711
0.168726
0.167686
0.165944
0.163962
0.16218
0.160955
0.16045
0.160779
0.161901
0.164456
0.169039
0.174686
0.183287
0.194178
0.207892
0.22559
0.245093
0.266474
0.289412
0.310712
0.326953
0.0223963
0.0412551
0.0525484
0.0612716
0.0689414
0.0760145
0.0826486
0.0889229
0.094891
0.100597
0.10608
0.111372
0.116503
0.121494
0.12636
0.131101
0.135709
0.140161
0.14442
0.148434
0.15213
0.155424
0.15819
0.16021
0.161236
0.161185
0.160274
0.158975
0.157806
0.157171
0.157214
0.157798
0.159466
0.16174
0.165241
0.18197
0.193918
0.204994
0.216976
0.2305
0.244556
0.258291
0.272536
0.288492
0.305971
0.323415
0.0238922
0.0434431
0.0543457
0.0626742
0.0699922
0.0767084
0.0829592
0.08883
0.094378
0.0996499
0.104685
0.109516
0.114173
0.118679
0.123051
0.127289
0.131388
0.13533
0.139085
0.142607
0.145837
0.148717
0.151157
0.15295
0.153868
0.153913
0.153448
0.153087
0.153225
0.153904
0.155386
0.157358
0.16143
0.176781
0.188595
0.201337
0.212394
0.22222
0.2319
0.242313
0.25334
0.264458
0.275681
0.287685
0.300831
0.314371
0.0252461
0.0451032
0.0557639
0.0637575
0.0707088
0.0770996
0.0829973
0.0884983
0.0936648
0.0985455
0.103181
0.107603
0.111841
0.115924
0.119867
0.123674
0.127341
0.130857
0.134202
0.137334
0.140202
0.142773
0.144987
0.146598
0.147461
0.147775
0.148101
0.148931
0.150372
0.152678
0.156019
0.172352
0.185543
0.198574
0.210014
0.22057
0.22992
0.238217
0.246217
0.254541
0.263402
0.27247
0.281335
0.29004
0.298865
0.307755
0.0258179
0.0458857
0.0566221
0.0644256
0.0711038
0.0771955
0.0827892
0.0879754
0.0928201
0.0973741
0.101679
0.105766
0.109668
0.113414
0.117024
0.120503
0.123857
0.127085
0.130179
0.133107
0.135827
0.138348
0.140583
0.14215
0.143029
0.143684
0.14475
0.146768
0.149596
0.164075
0.179557
0.195065
0.209046
0.22155
0.232164
0.241067
0.248653
0.255392
0.261957
0.268859
0.276313
0.283947
0.291009
0.296967
0.301794
0.305666
0.0251903
0.045467
0.0569764
0.0647933
0.0713032
0.077148
0.082484
0.0874087
0.0919914
0.0962843
0.10033
0.104162
0.107819
0.111333
0.114723
0.118005
0.121194
0.1243
0.127318
0.130216
0.132968
0.135637
0.138272
0.140096
0.14104
0.142055
0.144084
0.147981
0.169026
0.187451
0.204385
0.219997
0.233526
0.244599
0.253206
0.259823
0.265214
0.270117
0.275196
0.280988
0.287625
0.294591
0.300778
0.305028
0.306815
0.306477
0.0241623
0.0434441
0.0570065
0.06517
0.0715846
0.0772399
0.0823693
0.0870822
0.0914566
0.0955479
0.0993987
0.103038
0.106523
0.109891
0.113151
0.116339
0.119492
0.122648
0.125831
0.129034
0.132342
0.135569
0.138464
0.140334
0.141325
0.142793
0.159602
0.175703
0.195348
0.214186
0.230884
0.244982
0.256095
0.264232
0.269803
0.273567
0.276451
0.279315
0.28282
0.287517
0.293482
0.300095
0.306004
0.309562
0.309891
0.307867
0.0254981
0.044403
0.0575996
0.0653761
0.071628
0.0772558
0.082385
0.0870998
0.0914741
0.0955387
0.0993358
0.102905
0.106354
0.10979
0.113172
0.116407
0.119606
0.122839
0.126186
0.129875
0.136341
0.146761
0.15385
0.159475
0.165177
0.173475
0.187733
0.205743
0.224709
0.241765
0.25571
0.266308
0.273618
0.278036
0.280239
0.281099
0.281545
0.282422
0.284389
0.287941
0.293134
0.299348
0.30515
0.308681
0.309232
0.309339
0.0337351
0.0550979
0.0685638
0.0718778
0.0744154
0.078902
0.0839609
0.0889172
0.0934794
0.097594
0.101438
0.104993
0.109293
0.113948
0.119307
0.125049
0.13101
0.136927
0.14281
0.148799
0.155384
0.163435
0.171843
0.180464
0.190289
0.202763
0.218343
0.235623
0.251945
0.265314
0.275083
0.281371
0.284593
0.285384
0.284534
0.282903
0.281337
0.28059
0.28128
0.283844
0.288358
0.294282
0.300223
0.304281
0.30635
0.312027
0.0393935
0.0682783
0.0755335
0.0745887
0.0765999
0.080898
0.0861206
0.0915952
0.0970494
0.102411
0.107691
0.112936
0.118243
0.123695
0.129415
0.135525
0.142125
0.149209
0.156775
0.164854
0.173553
0.183029
0.193149
0.203995
0.216132
0.230057
0.24523
0.260064
0.272636
0.281751
0.287223
0.289457
0.289099
0.286917
0.283719
0.28029
0.277364
0.275591
0.275526
0.277575
0.281868
0.287996
0.294648
0.299888
0.304213
0.317191
0.0371171
0.0646799
0.0725267
0.0747397
0.0784092
0.0834291
0.0891429
0.0951444
0.101242
0.107372
0.113541
0.119791
0.126192
0.132822
0.139764
0.147107
0.154943
0.163339
0.17234
0.181975
0.192243
0.203103
0.214477
0.226419
0.239103
0.252413
0.265507
0.277001
0.285595
0.290671
0.292369
0.291288
0.288203
0.283916
0.27922
0.274794
0.271249
0.269142
0.268981
0.271172
0.275907
0.282895
0.29095
0.298236
0.305413
0.325193
0.0324318
0.0564231
0.0676809
0.0741073
0.0801508
0.0864543
0.0930011
0.0997088
0.106529
0.113453
0.120503
0.127719
0.135155
0.142875
0.150947
0.15944
0.168419
0.177941
0.188043
0.198719
0.20991
0.221485
0.233284
0.245192
0.257082
0.268553
0.278773
0.286709
0.29157
0.293148
0.291815
0.288282
0.28339
0.27791
0.27252
0.267805
0.264281
0.262439
0.262758
0.265665
0.271433
0.279888
0.290002
0.300041
0.310536
0.334242
0.0300674
0.0517803
0.0649722
0.0742689
0.0823518
0.0900021
0.0975153
0.105026
0.112607
0.120307
0.128171
0.136243
0.144573
0.15321
0.16221
0.171619
0.181477
0.191807
0.202602
0.213806
0.2253
0.236886
0.248317
0.259331
0.269615
0.278679
0.28584
0.290415
0.292026
0.290769
0.287202
0.282087
0.276204
0.270243
0.264788
0.260324
0.257289
0.256115
0.257251
0.261136
0.268127
0.278214
0.290621
0.303825
0.317964
0.342899
0.0297446
0.0501333
0.0645218
0.0755887
0.0851243
0.0938989
0.102321
0.110627
0.118952
0.127383
0.135979
0.144788
0.15385
0.163206
0.17289
0.182932
0.193341
0.204105
0.215171
0.226434
0.237716
0.248762
0.259256
0.268847
0.277138
0.283664
0.287929
0.289569
0.288533
0.285179
0.280131
0.274124
0.267861
0.26194
0.256844
0.252967
0.250668
0.25032
0.252313
0.257092
0.265084
0.276483
0.290891
0.30713
0.32458
0.348997
0.0305599
0.0505898
0.0657837
0.0778628
0.0883086
0.097897
0.107064
0.116069
0.125065
0.134146
0.143373
0.152788
0.162422
0.172301
0.182443
0.192852
0.203514
0.214382
0.225365
0.23631
0.246996
0.257124
0.266337
0.274247
0.280449
0.28457
0.286293
0.285554
0.282553
0.277767
0.27184
0.265459
0.259241
0.253685
0.249176
0.246022
0.244505
0.244913
0.24758
0.252926
0.261422
0.273477
0.289158
0.307847
0.328462
0.352349
0.0319884
0.0523765
0.0681429
0.0807361
0.0916897
0.101811
0.111531
0.121094
0.130644
0.140263
0.15
0.159885
0.169935
0.18016
0.190558
0.201114
0.211786
0.222498
0.233126
0.243482
0.253314
0.262297
0.270061
0.276235
0.280434
0.282425
0.282106
0.279592
0.275228
0.269556
0.26321
0.256814
0.250896
0.245861
0.242006
0.239553
0.23871
0.239674
0.242716
0.248205
0.256619
0.268523
0.284436
0.304464
0.327922
0.353708
0.0336783
0.0548949
0.0710838
0.0839
0.0951051
0.105547
0.115644
0.125616
0.135582
0.145607
0.15572
0.165936
0.176254
0.186666
0.197151
0.207671
0.218162
0.228522
0.238603
0.248189
0.257012
0.264751
0.271021
0.27551
0.277955
0.278227
0.276363
0.272602
0.267374
0.261239
0.254799
0.248608
0.243112
0.23863
0.235378
0.233512
0.233149
0.23442
0.237524
0.242758
0.250567
0.261568
0.276538
0.296247
0.320947
0.349778
0.0354087
0.0577467
0.0742498
0.0871435
0.0984579
0.109078
0.119408
0.129648
0.139893
0.150187
0.160541
0.17095
0.181398
0.191854
0.202279
0.212617
0.222782
0.232646
0.242054
0.250763
0.258491
0.264944
0.269811
0.27283
0.273831
0.272778
0.269808
0.265237
0.25953
0.253237
0.246914
0.241043
0.235994
0.232013
0.229249
0.227799
0.227708
0.229047
0.231945
0.236623
0.243452
0.253011
0.266124
0.283812
0.306999
0.335923
0.0370544
0.0606813
0.0774224
0.0903399
0.101696
0.112403
0.122858
0.133245
0.143642
0.154076
0.16454
0.175014
0.185464
0.195838
0.206079
0.216119
0.225851
0.235114
0.243742
0.25151
0.258161
0.263427
0.267053
0.268843
0.268703
0.266676
0.262965
0.257923
0.252021
0.245776
0.239687
0.234171
0.229531
0.225954
0.22354
0.222327
0.222315
0.223524
0.226019
0.22995
0.235599
0.243445
0.254214
0.268874
0.288443
0.313569
0.0385518
0.0635305
0.0804732
0.0934145
0.104789
0.115526
0.126025
0.136461
0.146901
0.157359
0.167817
0.178238
0.188581
0.198766
0.208718
0.218348
0.22754
0.236142
0.243976
0.250832
0.256479
0.260687
0.263257
0.264055
0.263052
0.260347
0.256182
0.250921
0.245015
0.23894
0.233136
0.22796
0.223658
0.220371
0.218165
0.21703
0.216938
0.217869
0.219837
0.222928
0.227338
0.23343
0.24177
0.253126
0.26831
0.287827
0.0398786
0.0661824
0.0833264
0.0963179
0.107707
0.118441
0.128925
0.139332
0.149726
0.160112
0.170462
0.180727
0.190846
0.200739
0.210317
0.219477
0.228094
0.23602
0.24308
0.249082
0.253825
0.257121
0.258821
0.258846
0.257216
0.254071
0.249666
0.244361
0.238573
0.23273
0.227217
0.222335
0.218289
0.215184
0.213055
0.21187
0.211578
0.21213
0.213504
0.215734
0.218944
0.223387
0.229471
0.237746
0.248758
0.26275
0.0410444
0.0685645
0.085934
0.099008
0.110415
0.121122
0.131542
0.141854
0.152125
0.162356
0.172513
0.182539
0.192363
0.201899
0.211049
0.219703
0.227734
0.234995
0.241324
0.246551
0.250503
0.253033
0.254037
0.25348
0.251419
0.248014
0.243525
0.238289
0.232687
0.227097
0.221853
0.21721
0.213337
0.210317
0.208161
0.206827
0.206251
0.206364
0.207121
0.208516
0.210618
0.21359
0.217709
0.223342
0.230822
0.240192
0.0420383
0.0705781
0.0882378
0.101422
0.11285
0.123514
0.133839
0.144014
0.154108
0.164124
0.174026
0.183754
0.19323
0.202364
0.211056
0.21919
0.22664
0.233269
0.238927
0.243465
0.246741
0.248644
0.249106
0.248126
0.245787
0.242258
0.23779
0.232693
0.227309
0.221967
0.216957
0.212496
0.208725
0.20571
0.20345
0.201898
0.200983
0.200629
0.200774
0.201388
0.202496
0.204197
0.206669
0.210144
0.214811
0.220604
0.0427783
0.0722635
0.0902108
0.103511
0.114959
0.12557
0.135781
0.145789
0.155669
0.165429
0.175034
0.184424
0.193519
0.202227
0.210446
0.218063
0.224957
0.230997
0.236051
0.23999
0.2427
0.2441
0.244152
0.24288
0.240381
0.236824
0.232445
0.227525
0.222366
0.217255
0.212441
0.208112
0.204385
0.201316
0.198898
0.197084
0.195803
0.194977
0.194536
0.194434
0.19467
0.195295
0.196416
0.198177
0.200675
0.203806
0.0432767
0.073608
0.0918192
0.105229
0.116694
0.127244
0.137328
0.14715
0.156794
0.166273
0.175555
0.184583
0.193278
0.201551
0.209301
0.216418
0.222788
0.228291
0.23281
0.236238
0.238483
0.239489
0.239241
0.23778
0.235208
0.23169
0.227442
0.222717
0.217778
0.212875
0.208223
0.203984
0.200259
0.197096
0.194488
0.19239
0.190736
0.18945
0.188461
0.187717
0.187196
0.186921
0.186952
0.187373
0.188232
0.189422
0.0435448
0.0745972
0.093034
0.10654
0.118013
0.128495
0.138443
0.148069
0.157464
0.166647
0.175594
0.18425
0.192542
0.200383
0.207677
0.21432
0.220205
0.225226
0.229281
0.232277
0.234147
0.234852
0.234393
0.232822
0.230243
0.226809
0.222718
0.218192
0.213462
0.208745
0.204226
0.200047
0.196297
0.193017
0.190203
0.187817
0.185799
0.184079
0.18259
0.181276
0.180108
0.179088
0.178248
0.177636
0.177272
0.177064
0.043593
0.0752225
0.0938354
0.107415
0.118884
0.12929
0.139095
0.148519
0.15766
0.166543
0.175151
0.183436
0.19133
0.198751
0.20561
0.211811
0.217257
0.221851
0.225505
0.228144
0.229716
0.230196
0.229599
0.227979
0.225439
0.222119
0.218197
0.213869
0.209336
0.204785
0.200379
0.19624
0.19245
0.189046
0.186028
0.183364
0.181004
0.178886
0.176948
0.175138
0.173423
0.171794
0.170265
0.168864
0.167599
0.166395
0.0434329
0.075484
0.0942145
0.107839
0.119287
0.129608
0.139265
0.148484
0.157369
0.165953
0.174226
0.182146
0.189655
0.196676
0.203127
0.208921
0.21397
0.218189
0.221502
0.223849
0.225189
0.225508
0.224829
0.223207
0.220738
0.217553
0.213806
0.209671
0.205323
0.200924
0.196617
0.19251
0.188677
0.185153
0.181942
0.179023
0.176352
0.173878
0.171548
0.169314
0.167143
0.165023
0.162958
0.160965
0.159045
0.157144
0.0430788
0.0753903
0.0941737
0.107807
0.119216
0.129438
0.138941
0.147953
0.156584
0.164874
0.17282
0.180388
0.187528
0.19417
0.200243
0.205665
0.21036
0.214253
0.21728
0.219389
0.220552
0.220762
0.220044
0.218454
0.216081
0.213042
0.209473
0.205526
0.201354
0.197098
0.192883
0.188807
0.184936
0.181306
0.177926
0.17478
0.171838
0.169057
0.166391
0.163803
0.161261
0.158753
0.15628
0.15385
0.151467
0.149092
0.042548
0.0749589
0.0937264
0.107331
0.118674
0.128785
0.138127
0.14693
0.155309
0.163311
0.17094
0.178171
0.18496
0.191249
0.196971
0.202057
0.206437
0.210048
0.212833
0.214753
0.215783
0.215924
0.215203
0.213671
0.21141
0.208523
0.205133
0.20137
0.197367
0.19325