/*--------------------------------*- C++ -*----------------------------------*\
  =========                 |
  \\      /  F ield         | OpenFOAM: The Open Source CFD Toolbox
   \\    /   O peration     | Website:  https://openfoam.org
    \\  /    A nd           | Version:  7
     \\/     M anipulation  |
\*---------------------------------------------------------------------------*/
FoamFile
{
    version     2.0;
    format      ascii;
    class       volScalarField;
    location    "0.25";
    object      nut;
}
// * * * * * * * * * * * * * * * * * * * * * * * * * * * * * * * * * * * * * //

dimensions      [0 2 -1 0 0 0 0];

internalField   nonuniform List<scalar> 
9072
(
2.55255e-05
2.67849e-05
3.33726e-05
3.78373e-05
4.10537e-05
4.36113e-05
4.57618e-05
4.76503e-05
4.93666e-05
5.0969e-05
5.24966e-05
5.39761e-05
5.54259e-05
5.68584e-05
5.8281e-05
5.96975e-05
6.11079e-05
6.25093e-05
6.38957e-05
6.52587e-05
6.65875e-05
6.78692e-05
6.90897e-05
7.02331e-05
7.12833e-05
7.22232e-05
7.3036e-05
7.37048e-05
7.42133e-05
7.45453e-05
7.46846e-05
7.46129e-05
7.43011e-05
7.38146e-05
7.31277e-05
7.21852e-05
7.09337e-05
6.93054e-05
6.72067e-05
6.45229e-05
6.11512e-05
5.71229e-05
5.38893e-05
5.41641e-05
5.2815e-05
5.26474e-05
5.00441e-05
0.000188192
0.000271413
0.00032896
0.00037202
0.000405551
0.000432854
0.000456093
0.000476674
0.000495511
0.000513202
0.000530131
0.000546536
0.000562542
0.000578194
0.000593466
0.000608278
0.000622503
0.000635977
0.000648511
0.000659893
0.000669902
0.000678317
0.000684924
0.000689525
0.000691945
0.000692042
0.000689711
0.000684893
0.000677581
0.000667826
0.000655734
0.000641332
0.000620574
0.000594171
0.000563089
0.000527994
0.000489296
0.000447806
0.0004056
0.000366369
0.000334111
0.000306212
0.000291783
0.000268669
0.000140565
5.66396e-05
0.000291808
0.000459646
0.000589708
0.000694588
0.000781609
0.00085599
0.000921489
0.000980777
0.00103573
0.00108766
0.00113743
0.00118561
0.00123247
0.00127812
0.00132245
0.00136524
0.00140612
0.00144465
0.00148028
0.00151247
0.00154062
0.00156415
0.00158252
0.00159523
0.00160188
0.00160214
0.00159582
0.00158284
0.00156331
0.00153747
0.00150572
0.00146833
0.00142198
0.00136594
0.00130052
0.00122512
0.00113732
0.00103313
0.000910158
0.000774254
0.000644937
0.000544173
0.000493205
0.000461863
0.000158066
6.2519e-05
0.000349507
0.000581357
0.000772392
0.000934403
0.00107469
0.00119882
0.00131105
0.00141462
0.00151189
0.00160459
0.00169388
0.00178053
0.0018649
0.00194707
0.00202685
0.0021038
0.00217731
0.00224662
0.00231085
0.00236905
0.00242026
0.00246353
0.00249798
0.00252283
0.00253741
0.00254127
0.00253413
0.00251595
0.00248699
0.00244778
0.00239912
0.00234175
0.0022739
0.00219502
0.00210501
0.0020019
0.00188008
0.00172956
0.00153921
0.0013071
0.00105776
0.000846057
0.000725172
0.000641204
0.000177157
6.7287e-05
0.000387383
0.000664039
0.000902363
0.00111225
0.00129988
0.00147025
0.00162748
0.00177483
0.00191481
0.00204924
0.00217941
0.00230611
0.0024297
0.00255017
0.00266718
0.00278008
0.002888
0.00298988
0.00308451
0.00317061
0.00324688
0.00331204
0.0033649
0.00340444
0.0034298
0.00344041
0.00343595
0.00341647
0.00338242
0.00333468
0.0032745
0.00320321
0.00312028
0.00302593
0.00291979
0.00279859
0.00265384
0.00247098
0.00223251
0.00192854
0.00157751
0.00124762
0.00102449
0.000837907
0.000194043
7.11308e-05
0.000416196
0.000724769
0.000999097
0.00124787
0.00147595
0.00168743
0.00188588
0.00207429
0.002255
0.00242977
0.00259982
0.00276585
0.00292811
0.00308645
0.00324032
0.00338887
0.00353097
0.00366527
0.00379029
0.00390443
0.00400611
0.00409379
0.00416604
0.00422162
0.00425956
0.00427919
0.00428023
0.00426286
0.00422776
0.00417619
0.00410991
0.00403083
0.00393942
0.00383652
0.0037214
0.00358923
0.00342883
0.00322239
0.00294916
0.00259495
0.00217029
0.00173673
0.00138738
0.00104623
0.000209847
7.41845e-05
0.000439767
0.000772557
0.00107478
0.00135501
0.00161721
0.00186457
0.00209998
0.00232596
0.00254454
0.00275725
0.00296512
0.00316868
0.00336798
0.00356268
0.00375201
0.00393488
0.0041099
0.00427549
0.00442989
0.00457126
0.00469779
0.0048077
0.0048994
0.0049715
0.00502294
0.00505304
0.00506159
0.00504893
0.00501604
0.00496459
0.00489686
0.00481534
0.00472121
0.00461565
0.00449719
0.00435912
0.00418764
0.00396262
0.00366224
0.00327097
0.00279295
0.00227338
0.00178767
0.0012569
0.000224598
7.67106e-05
0.000459414
0.000811874
0.00113663
0.00144274
0.0017338
0.00201233
0.0022806
0.00254058
0.00279391
0.00304181
0.00328503
0.00352384
0.00375807
0.00398711
0.00420998
0.00442532
0.00463152
0.00482674
0.00500901
0.00517628
0.00532653
0.00545785
0.00556847
0.00565695
0.00572218
0.0057635
0.00578084
0.00577474
0.00574652
0.00569828
0.00563282
0.00555317
0.00546096
0.00535731
0.00523961
0.00509891
0.00491878
0.00467748
0.00435338
0.00393136
0.00341056
0.00281748
0.00219715
0.0014632
0.000237148
7.87931e-05
0.000475683
0.000844955
0.00118885
0.00151692
0.00183277
0.00213853
0.00243598
0.00272662
0.00301166
0.00329195
0.00356792
0.00383955
0.00410639
0.00436757
0.00462182
0.00486756
0.00510293
0.00532589
0.00553427
0.00572583
0.00589841
0.00604995
0.00617863
0.00628294
0.00636177
0.00641457
0.00644139
0.00644306
0.00642124
0.0063785
0.00631815
0.00624364
0.00615686
0.00605841
0.00594413
0.00580254
0.00561456
0.00535734
0.00501025
0.00455943
0.00400019
0.00334159
0.00259566
0.00166108
0.000249157
8.05048e-05
0.000488927
0.000873047
0.00123398
0.00158138
0.001919
0.00224884
0.00257236
0.00289066
0.00320458
0.00351459
0.00382077
0.0041228
0.0044199
0.00471092
0.00499434
0.00526832
0.00553079
0.0057795
0.00601209
0.00622621
0.00641955
0.00658998
0.00673561
0.00685492
0.00694687
0.007011
0.00704757
0.0070577
0.00704343
0.00700779
0.00695457
0.00688758
0.00680871
0.00671757
0.00660819
0.00646625
0.00627009
0.00599609
0.00562515
0.00514526
0.00454902
0.00383078
0.00297173
0.00184895
0.000261019
8.19155e-05
0.000499475
0.000896984
0.00127363
0.00163865
0.00199589
0.00234739
0.00269441
0.00303779
0.00337805
0.0037153
0.00404929
0.00437935
0.00470442
0.00502304
0.00533342
0.00563348
0.00592095
0.00619339
0.0064483
0.00668318
0.00689565
0.00708351
0.00724485
0.00737818
0.00748253
0.00755758
0.00760383
0.0076227
0.00761664
0.00758915
0.00754443
0.00748653
0.00741719
0.00733453
0.00723059
0.00708802
0.00688265
0.00659038
0.00619403
0.00568396
0.00505124
0.00427857
0.0033199
0.00202695
0.000273179
8.3089e-05
0.000507673
0.000917441
0.00130897
0.00169051
0.00206588
0.00243718
0.00280565
0.00317194
0.0035363
0.00389854
0.0042581
0.00461398
0.00496481
0.00530883
0.00564401
0.00596805
0.00627845
0.00657263
0.00684794
0.00710181
0.00733176
0.00753556
0.00771131
0.00785755
0.00797343
0.0080588
0.00811439
0.00814198
0.00814441
0.00812562
0.0080902
0.00804232
0.00798349
0.00790965
0.00781107
0.00766712
0.00745122
0.00713906
0.00671567
0.00617424
0.00550547
0.00468326
0.00363813
0.0021961
0.000286003
8.40815e-05
0.000513875
0.000935022
0.00134091
0.00173826
0.00213071
0.00252046
0.00290874
0.00329612
0.00368265
0.00406788
0.00445095
0.00483056
0.00520504
0.00557238
0.00593029
0.00627623
0.00660756
0.00692153
0.00721539
0.00748647
0.00773226
0.0079505
0.00813931
0.00829731
0.00842375
0.00851868
0.0085831
0.00861912
0.00863002
0.00862012
0.00859435
0.00855685
0.0085086
0.0084437
0.00835003
0.00820377
0.00797608
0.00764265
0.00719092
0.00661725
0.00591303
0.00504575
0.00392608
0.00235804
0.000299744
8.49409e-05
0.000518438
0.000950287
0.00137019
0.0017829
0.00219172
0.00259889
0.0030057
0.00341267
0.00381969
0.00422612
0.00463082
0.00503223
0.0054284
0.00581705
0.00619567
0.00656155
0.00691185
0.00724372
0.00755431
0.00784088
0.00810089
0.00833209
0.00853261
0.00870116
0.00883713
0.00894077
0.00901336
0.00905734
0.00907641
0.00907529
0.00905912
0.00903196
0.00899399
0.00893771
0.00884831
0.00869887
0.00845844
0.00810287
0.0076221
0.00701584
0.00627694
0.00536851
0.00418494
0.00251542
0.000314817
8.57075e-05
0.000521724
0.000963762
0.00139747
0.00182525
0.00224993
0.00267375
0.00309807
0.00352337
0.00394946
0.00437549
0.00480012
0.00522152
0.00563751
0.00604557
0.006443
0.00682689
0.0071943
0.00754224
0.0078678
0.00816819
0.00844085
0.00868353
0.00889442
0.00907231
0.00921673
0.00932815
0.00940812
0.00945945
0.00948621
0.00949348
0.00948659
0.00946935
0.00944108
0.00939278
0.00930704
0.0091538
0.00890017
0.00852228
0.00801252
0.007374
0.00660158
0.00565569
0.0044191
0.00267338
0.000331644
8.64151e-05
0.0005241
0.000975927
0.00142331
0.00186596
0.00230613
0.00274602
0.00318701
0.00362961
0.00407351
0.00451773
0.00496072
0.00540045
0.0058345
0.00626017
0.00667456
0.00707465
0.00745735
0.0078196
0.00815844
0.00847103
0.00875481
0.00900754
0.00922747
0.00941349
0.00956526
0.00968347
0.00976997
0.00982789
0.00986169
0.00987677
0.00987857
0.00987058
0.00985112
0.00981004
0.00972752
0.0095702
0.0093035
0.00890388
0.00836611
0.00769657
0.00689263
0.00591406
0.00464014
0.00285051
0.00035117
4.26499e-05
9.55909e-05
0.000132013
0.000157405
0.000175537
0.000188449
0.0001976
0.000203189
0.000205979
0.000206698
0.000205963
0.00020426
0.000201973
0.000199399
0.000196758
0.000194201
0.00019181
0.000189627
0.000187657
0.000185874
0.000184248
0.000182734
0.000181279
0.000179816
0.000178269
0.000176558
0.000174537
0.000172035
0.000168842
0.00016469
0.000159236
0.000152041
0.00014254
0.000129997
0.000113416
9.15291e-05
6.29417e-05
7.10874e-05
7.53025e-05
0.000249074
0.000338995
0.000405501
0.000457171
0.000497287
0.000526999
0.000547976
0.000561812
0.000569699
0.000572725
0.000571887
0.000568121
0.000562298
0.000555194
0.00054748
0.000539685
0.000532159
0.000525128
0.000518647
0.000512677
0.000507103
0.000501766
0.000496466
0.000490942
0.000484931
0.00047814
0.000470176
0.000460571
0.00044877
0.00043413
0.000415819
0.000392735
0.000363339
0.000325228
0.000274076
0.000202514
0.00028519
8.39816e-05
0.000387421
0.00054651
0.000661411
0.000752027
0.000824458
0.000880697
0.000923494
0.000954609
0.000975285
0.000986736
0.000990269
0.000987316
0.000979404
0.000968043
0.000954644
0.000940405
0.000926191
0.000912608
0.000899913
0.000888106
0.000877021
0.00086637
0.000855781
0.00084478
0.000832835
0.000819426
0.000803863
0.000785351
0.000762969
0.000735668
0.000702111
0.000660509
0.000608253
0.000540989
0.000449966
0.000313849
0.000296921
9.10549e-05
0.000501109
0.000729728
0.000889678
0.00101601
0.00111937
0.00120327
0.00127077
0.00132321
0.00136126
0.00138573
0.00139784
0.00139927
0.00139207
0.0013785
0.00136077
0.00134086
0.00132029
0.00130014
0.00128101
0.00126301
0.00124597
0.00122949
0.00121304
0.00119593
0.00117732
0.00115643
0.00113224
0.00110358
0.00106914
0.0010274
0.000976458
0.000913776
0.000835576
0.000735427
0.000600301
0.000398341
7.27029e-05
9.73181e-05
0.000594405
0.00088565
0.0010838
0.00124015
0.00137102
0.00148165
0.00157513
0.0016518
0.00171118
0.00175308
0.00177816
0.00178801
0.00178503
0.00177209
0.00175221
0.0017282
0.00170231
0.00167624
0.00165099
0.0016269
0.00160386
0.00158141
0.00155885
0.0015353
0.00150963
0.00148076
0.00144734
0.00140782
0.00136048
0.0013033
0.00123384
0.00114877
0.00104319
0.000908738
0.000728941
0.00046651
7.71255e-05
0.000103265
0.000672535
0.00101623
0.00124453
0.00142457
0.00157879
0.00171429
0.00183408
0.00193711
0.00202116
0.00208453
0.00212684
0.00214923
0.00215415
0.00214498
0.00212549
0.0020993
0.00206949
0.00203843
0.00200764
0.00197777
0.00194885
0.00192041
0.00189163
0.00186143
0.00182843
0.00179125
0.00174817
0.00169731
0.00163651
0.0015633
0.00147466
0.00136655
0.00123299
0.001064
0.000840533
0.000522601
8.07676e-05
0.000109264
0.000739906
0.00112467
0.00137498
0.0015725
0.00174567
0.00190364
0.00204935
0.0021801
0.00229151
0.00237989
0.00244337
0.00248222
0.00249871
0.0024965
0.00248002
0.00245373
0.00242154
0.00238657
0.00235095
0.00231574
0.00228115
0.00224677
0.00221172
0.00217472
0.00213418
0.0020884
0.00203535
0.00197279
0.00189815
0.00180851
0.00170032
0.00156887
0.00140724
0.0012041
0.000938632
0.000569869
8.3848e-05
0.000115657
0.00079983
0.00121453
0.00147942
0.00168869
0.00187633
0.00205394
0.00222448
0.00238351
0.00252423
0.00264054
0.00272863
0.00278756
0.00281908
0.00282695
0.00281611
0.00279183
0.00275886
0.00272115
0.00268149
0.00264141
0.00260142
0.00256121
0.00251985
0.00247594
0.00242768
0.00237307
0.0023098
0.00223525
0.00214649
0.00204018
0.00191225
0.0017574
0.00156791
0.00133138
0.00102587
0.000610548
8.64872e-05
0.000122817
0.0008548
0.00128975
0.00156301
0.00177886
0.00197647
0.00217045
0.00236398
0.002551
0.00272213
0.00286854
0.00298414
0.00306635
0.00311608
0.00313696
0.00313432
0.00311413
0.003082
0.00304275
0.00299987
0.00295545
0.00291035
0.00286443
0.00281677
0.00276587
0.00270973
0.00264611
0.00257239
0.00248563
0.00238256
0.00225943
0.00211172
0.00193358
0.00171663
0.00144771
0.00110419
0.000646158
8.87732e-05
0.000131181
0.000907117
0.00135491
0.00163163
0.0018494
0.00205243
0.00225901
0.00247293
0.00268672
0.00288845
0.00306637
0.00321171
0.00331991
0.00339069
0.00342728
0.00343524
0.00342115
0.00339146
0.00335186
0.00330661
0.00325841
0.00320853
0.00315705
0.00310311
0.00304515
0.00298102
0.00290822
0.00282388
0.00272476
0.00260725
0.00246723
0.00229979
0.00209861
0.00185478
0.00155457
0.0011751
0.000677747
9.07752e-05
0.000141249
0.000959582
0.0014152
0.00169149
0.00190686
0.00211074
0.00232579
0.00255674
0.00279516
0.00302677
0.00323675
0.00341337
0.00354971
0.00364396
0.00369869
0.00371946
0.00371336
0.00368766
0.00364888
0.00360211
0.0035507
0.00349639
0.00343953
0.00337937
0.00331432
0.00324209
0.00316
0.00306491
0.00295332
0.0028213
0.00266441
0.00247739
0.00225352
0.00198348
0.00165317
0.0012397
0.000706056
9.25487e-05
0.000153559
0.00101585
0.00147603
0.00174845
0.00195735
0.00215769
0.00237681
0.00262084
0.00288096
0.00314081
0.00338257
0.00359128
0.00375733
0.00387705
0.003952
0.00398757
0.00399123
0.00397096
0.00393414
0.00388669
0.00383265
0.00377427
0.00371223
0.00364592
0.00357376
0.00349338
0.00340192
0.003296
0.00317188
0.00302535
0.00285168
0.0026453
0.00239917
0.00210366
0.00174447
0.00129888
0.000731619
9.41359e-05
0.000168589
0.00108021
0.00154228
0.0018073
0.00200589
0.00219872
0.00241759
0.00267044
0.00294868
0.00323438
0.00350682
0.00374772
0.00394446
0.00409114
0.00418806
0.00424018
0.00425519
0.00424168
0.00420789
0.00416057
0.00410447
0.0040424
0.00397539
0.00390303
0.00382379
0.00373524
0.00363435
0.00351758
0.00338092
0.00321993
0.00302963
0.00280418
0.0025363
0.00221612
0.00182926
0.00135334
0.00075484
9.55688e-05
0.000186676
0.00115696
0.00161767
0.00187124
0.00205603
0.00223813
0.00245284
0.00271024
0.00300267
0.00331121
0.00361255
0.00388505
0.00411286
0.00428753
0.00440779
0.00447792
0.00450566
0.00450011
0.00447036
0.00442393
0.00436633
0.00430094
0.0042292
0.00415091
0.00406463
0.00396792
0.00385763
0.00373001
0.00358086
0.00340552
0.0031988
0.00295463
0.00266554
0.00232154
0.00190822
0.00140363
0.000776028
9.68729e-05
0.000208396
0.00124972
0.00170428
0.0019416
0.00210979
0.00227889
0.00248622
0.00274425
0.00304686
0.00337484
0.00370272
0.00400564
0.00426433
0.00446756
0.00461215
0.0047015
0.00474308
0.00474657
0.00472174
0.00467693
0.00461836
0.00455002
0.00447378
0.00438971
0.00429645
0.00419165
0.004072
0.0039336
0.00377206
0.00358254
0.00335965
0.00309717
0.00278747
0.00242049
0.0019819
0.00145021
0.000795437
9.80691e-05
0.000239216
0.00136475
0.00180193
0.00201788
0.00216802
0.00232267
0.00252032
0.00277566
0.00308465
0.0034285
0.00378019
0.00411183
0.00440073
0.00463263
0.00480221
0.0049116
0.00496793
0.00498137
0.00496227
0.00491972
0.00486068
0.00478975
0.00470925
0.00461953
0.0045194
0.00440661
0.00427771
0.00412864
0.00395485
0.00375135
0.0035126
0.00323225
0.00290257
0.00251349
0.00205079
0.00149348
0.000813283
9.91746e-05
8.71319e-05
0.000526245
0.000989689
0.00145505
0.00191834
0.00238066
0.00284382
0.00330904
0.00377667
0.00424621
0.00471644
0.0051855
0.00565106
0.00611042
0.00656061
0.0069985
0.00742088
0.00782454
0.00820633
0.00856322
0.00889237
0.00919122
0.00945759
0.00968984
0.00988703
0.0100491
0.0101771
0.0102733
0.0103415
0.0103868
0.0104151
0.0104322
0.0104408
0.0104378
0.010409
0.0103311
0.0101671
0.00988047
0.00944841
0.00886923
0.00815432
0.00730601
0.00628855
0.0050018
0.00329646
0.000859128
8.82778e-05
0.000527981
0.00100948
0.00150075
0.00199231
0.00248389
0.00297693
0.00347245
0.00397061
0.00447068
0.00497114
0.00546984
0.00596415
0.0064511
0.00692751
0.00739008
0.00783548
0.00826041
0.0086617
0.0090363
0.00938138
0.00969442
0.00997331
0.0102165
0.0104233
0.010594
0.01073
0.0108342
0.0109113
0.0109669
0.0110076
0.0110394
0.0110644
0.0110769
0.0110583
0.0109797
0.0108015
0.0104861
0.0100121
0.00938208
0.00861383
0.00771779
0.0066705
0.00539917
0.00379104
0.00165896
8.94167e-05
0.000530026
0.00103121
0.00154951
0.00206978
0.00259039
0.00311232
0.00363636
0.00416241
0.00468951
0.00521589
0.00573919
0.00625662
0.00676508
0.00726132
0.00774202
0.00820385
0.00864357
0.00905802
0.00944423
0.0097994
0.0101211
0.0104071
0.0106562
0.0108676
0.0110419
0.011181
0.0112883
0.011369
0.0114296
0.0114772
0.0115177
0.0115529
0.0115753
0.0115641
0.011484
0.011295
0.0109578
0.0104519
0.00978327
0.00897547
0.00804825
0.00699292
0.00576165
0.00428336
0.00250323
9.059e-05
0.000533637
0.00105675
0.00160325
0.00215262
0.00270196
0.00325176
0.0038025
0.0043538
0.00490444
0.00545251
0.00599552
0.00653065
0.00705483
0.00756487
0.00805758
0.00852975
0.00897828
0.00940016
0.00979248
0.0101525
0.0104779
0.0107664
0.0110167
0.0112283
0.0114018
0.0115395
0.0116452
0.0117247
0.0117851
0.0118341
0.0118777
0.0119172
0.0119444
0.0119368
0.0118561
0.01166
0.0113081
0.0107801
0.0100837
0.00924821
0.0083035
0.0072568
0.00608326
0.00474598
0.00326279
9.1833e-05
0.000539851
0.00108804
0.00166432
0.00224325
0.00282083
0.00339713
0.0039723
0.00454572
0.00511602
0.00568122
0.00623887
0.00678624
0.00732044
0.00783849
0.0083374
0.00881423
0.0092661
0.00969016
0.0100837
0.010444
0.0107687
0.0110557
0.0113035
0.0115115
0.0116804
0.0118127
0.0119128
0.011987
0.012043
0.0120889
0.0121309
0.0121704
0.0121986
0.0121925
0.0121124
0.0119136
0.0115541
0.0110125
0.0102975
0.00944318
0.00848957
0.00745955
0.00634851
0.00514315
0.00388978
9.31805e-05
0.000549646
0.00112708
0.00173528
0.00234432
0.00294933
0.00355012
0.00414669
0.00473836
0.00532379
0.00590108
0.006468
0.00702204
0.0075606
0.00808103
0.00858065
0.00905683
0.00950698
0.00992851
0.0103189
0.0106755
0.010996
0.0112782
0.0115203
0.0117218
0.0118832
0.0120073
0.012099
0.012165
0.0122138
0.0122539
0.0122918
0.0123289
0.0123566
0.0123519
0.0122753
0.0120786
0.0117185
0.0111713
0.0104451
0.00957794
0.00861917
0.0076065
0.00655281
0.00546033
0.00437905
9.46782e-05
0.000564057
0.00117609
0.00181887
0.00245838
0.00308935
0.00371172
0.00432573
0.00493094
0.0055263
0.00611022
0.0066808
0.00723592
0.00777334
0.00829079
0.00878597
0.00925662
0.00970047
0.0101152
0.0104986
0.0108482
0.0111615
0.0114363
0.0116707
0.0118637
0.0120159
0.0121302
0.0122121
0.012269
0.0123101
0.0123441
0.012378
0.012413
0.012441
0.0124398
0.0123708
0.0121822
0.0118284
0.0112819
0.0105494
0.00967194
0.00870751
0.00770762
0.00670128
0.00570079
0.00474849
9.63924e-05
0.000584436
0.00123758
0.00191763
0.00258725
0.00324163
0.00388159
0.00450813
0.00512148
0.00572115
0.00630607
0.00687478
0.00742561
0.00795674
0.0084663
0.0089524
0.00941315
0.00984665
0.010251
0.010624
0.0109637
0.0112676
0.0115334
0.0117587
0.0119424
0.0120849
0.0121895
0.0122621
0.0123113
0.0123466
0.0123773
0.0124099
0.0124456
0.0124767
0.0124823
0.0124248
0.0122515
0.011911
0.0113683
0.0106257
0.00973235
0.00875579
0.00775686
0.00678254
0.00585381
0.00500218
9.84089e-05
0.000612902
0.00131414
0.00203306
0.00273092
0.00340485
0.0040574
0.00469094
0.00530675
0.00590513
0.00648565
0.00704739
0.00758914
0.00810949
0.00860698
0.00908008
0.00952729
0.00994707
0.0103379
0.010698
0.0110255
0.0113183
0.011574
0.0117901
0.0119648
0.0120985
0.0121949
0.012261
0.0123061
0.0123403
0.0123723
0.012408
0.012448
0.0124852
0.0125007
0.0124591
0.0123077
0.0119934
0.0114722
0.0107046
0.00975501
0.00874304
0.00771589
0.0067444
0.00586242
0.00509245
0.000100811
0.000652624
0.0014074
0.00216405
0.00288634
0.00357482
0.00423449
0.0048695
0.00548243
0.0060745
0.006646
0.00719654
0.00772536
0.00823144
0.00871367
0.00917086
0.00960185
0.0100054
0.0103805
0.0107256
0.0110395
0.0113202
0.0115656
0.0117729
0.01194
0.0120671
0.0121585
0.0122224
0.012269
0.0123078
0.0123464
0.0123888
0.0124348
0.0124788
0.012506
0.0124897
0.0123717
0.0120431
0.0115092
0.0107613
0.00979609
0.00876311
0.00769492
0.00668063
0.00577391
0.00503186
0.000103636
0.00070684
0.00151528
0.00230477
0.00304638
0.00374435
0.00440618
0.00503795
0.00564365
0.00622553
0.00678457
0.00732091
0.0078342
0.00832378
0.00878884
0.00922847
0.0096418
0.0100279
0.0103861
0.0107154
0.0110148
0.0112831
0.0115186
0.0117184
0.0118798
0.0120032
0.0120937
0.0121606
0.0122142
0.0122625
0.0123108
0.0123605
0.0124092
0.012456
0.0124868
0.0124852
0.0123551
0.0120043
0.0114577
0.0106752
0.00972137
0.00877682
0.00779593
0.00678273
0.00583542
0.00501088
0.000106845
0.00077397
0.00162765
0.00244318
0.00320008
0.00390413
0.00456473
0.00519008
0.00578575
0.00635503
0.00689963
0.0074202
0.00791679
0.00838905
0.00883645
0.00925832
0.009654
0.0100229
0.0103645
0.0106783
0.0109638
0.0112204
0.011447
0.0116408
0.0117986
0.0119208
0.0120138
0.0120879
0.0121523
0.012212
0.0122676
0.012321
0.0123682
0.0124368
0.0123197
0.0106848
0.0101306
0.00983893
0.00956215
0.00921561
0.00878472
0.00824584
0.00757043
0.00677004
0.00592484
0.00514112
0.000110378
0.000836263
0.00172378
0.0025623
0.00333475
0.00404479
0.00470296
0.00532058
0.00590507
0.00646093
0.0069906
0.00749525
0.00797531
0.0084308
0.00886143
0.00926671
0.00964622
0.00999959
0.0103266
0.0106269
0.0109004
0.0111471
0.0113668
0.0115563
0.0117115
0.0118335
0.0119302
0.0120132
0.012088
0.012154
0.0122136
0.0122852
0.0119072
0.010152
0.00945352
0.00902337
0.00881241
0.00868713
0.00855631
0.00837198
0.00810197
0.00771642
0.00719711
0.00655223
0.005832
0.00513603
0.000113237
0.000868347
0.00179213
0.00265754
0.0034424
0.00415996
0.00481608
0.00542612
0.00599973
0.00654266
0.00705812
0.00754781
0.0080126
0.00845289
0.00886861
0.00925947
0.00962522
0.00996581
0.0102812
0.0105712
0.0108357
0.0110758
0.0112924
0.0114803
0.0116331
0.0117533
0.0118512
0.0119363
0.0120181
0.0120978
0.0120154
0.00999101
0.00915245
0.00866343
0.00841721
0.00829069
0.00821699
0.00815075
0.00804591
0.0078752
0.00761873
0.00726156
0.0067973
0.00623405
0.00560336
0.004976
0.000114077
0.000864937
0.00182383
0.00272377
0.00352592
0.00424848
0.00490265
0.00550579
0.00606951
0.00660076
0.00710345
0.00757976
0.00803103
0.00845815
0.00886117
0.00923998
0.00959463
0.00992545
0.0102327
0.010516
0.0107748
0.0110117
0.0112309
0.0114235
0.0115743
0.0116872
0.0117787
0.01186
0.0119344
0.0101585
0.00910575
0.00854317
0.0082952
0.00819623
0.00816255
0.00814196
0.00810023
0.00801486
0.00786276
0.00762806
0.00730545
0.00689697
0.00640995
0.00585809
0.00526594
0.00468144
0.000112187
0.000807986
0.00181438
0.0027654
0.00358992
0.00431524
0.00496579
0.00556198
0.00611673
0.00663767
0.00712922
0.00759373
0.00803322
0.00844923
0.00884166
0.00921053
0.00955624
0.00987931
0.01018
0.0104574
0.0107097
0.0109441
0.0111791
0.0113945
0.0115444
0.0116473
0.011736
0.0115468
0.00931717
0.00853168
0.00823332
0.0081561
0.00818166
0.00823892
0.00828211
0.00828098
0.0082147
0.00806824
0.00782962
0.00749407
0.00706976
0.00657312
0.0060228
0.00543788
0.0048415
0.00427215
0.000109946
0.000656062
0.00174508
0.00279748
0.00364973
0.00437543
0.00501961
0.00560691
0.0061518
0.00666234
0.00714313
0.0075955
0.00802286
0.00842838
0.00881096
0.0091713
0.0095109
0.00983106
0.0101324
0.0104128
0.0106753
0.0109226
0.01114
0.0113355
0.0114729
0.0114782
0.00964076
0.00873675
0.00825086
0.00811838
0.0081571
0.00826877
0.0083953
0.00849728
0.0085452
0.0085162
0.00839241
0.00816096
0.00781639
0.00736556
0.00682959
0.00623693
0.00561428
0.00498295
0.00436448
0.00379624
0.000114994
0.000644502
0.00171784
0.00277162
0.00363729
0.00437036
0.00501785
0.00560662
0.00615256
0.006667
0.00715207
0.00760032
0.00802127
0.00842593
0.008809
0.0091696
0.00950629
0.0098195
0.0101032
0.0103265
0.0102721
0.00983446
0.00957855
0.00936543
0.00909772
0.00875321
0.00840152
0.00818416
0.00816111
0.0082614
0.00841614
0.00858127
0.008724
0.00881652
0.00883353
0.00875206
0.00855308
0.00822495
0.00776892
0.0072038
0.00656339
0.00588619
0.00520374
0.0045362
0.00390156
0.00333894
0.000133503
0.000672197
0.00155374
0.00242275
0.00330262
0.00415519
0.00492763
0.00561195
0.00621484
0.00674714
0.00722808
0.00766106
0.00809168
0.00849101
0.00884645
0.00912337
0.00930583
0.00939879
0.00941396
0.00936271
0.00925301
0.00908948
0.00891059
0.00873423
0.00855532
0.00839713
0.00831643
0.00833838
0.00844958
0.00860874
0.00878162
0.00894219
0.00906577
0.00912665
0.00909804
0.00895408
0.00867424
0.0082497
0.00769034
0.00702746
0.00630638
0.00557297
0.0048596
0.00418073
0.00354621
0.00299542
0.000142031
0.00081451
0.00153997
0.00224819
0.00309437
0.00398775
0.00483757
0.00560706
0.00629
0.00689161
0.00741942
0.00787803
0.00827309
0.00860486
0.00887373
0.00907569
0.00920595
0.00926262
0.00925207
0.00918716
0.00908551
0.00896584
0.00884235
0.00872899
0.0086401
0.00859672
0.00861771
0.00870385
0.0088371
0.00899268
0.00914921
0.00928624
0.00938033
0.00940383
0.00932679
0.00912049
0.00876457
0.00825596
0.00761526
0.00688554
0.00612069
0.00536974
0.00466073
0.00399633
0.00337166
0.00282292
0.000135999
0.000789648
0.00146012
0.00217132
0.00302724
0.00395215
0.00485733
0.00569185
0.00643621
0.00708699
0.007647
0.00812043
0.00851176
0.00882495
0.009064
0.00923315
0.00933729
0.0093821
0.00937578
0.00932947
0.00925656
0.00917102
0.00908554
0.00901327
0.00896868
0.00896544
0.00901001
0.00909818
0.00921704
0.00935071
0.00948287
0.00959394
0.00965908
0.00964727
0.00952578
0.00926582
0.00884976
0.00828102
0.00758965
0.00682831
0.00605733
0.00532512
0.00465048
0.00401546
0.00339905
0.0028304
0.000127166
0.000741162
0.00142227
0.00219657
0.00309721
0.00405884
0.00500395
0.00588038
0.00666296
0.00734384
0.00792393
0.00840791
0.00880175
0.0091119
0.00934497
0.00950802
0.00960887
0.00965611
0.00965924
0.00962866
0.00957536
0.00951035
0.00944453
0.00938955
0.00935733
0.00935751
0.00939394
0.00946385
0.00955923
0.00966888
0.00977845
0.00986706
0.00990734
0.00986766
0.00971433
0.00941883
0.00896728
0.00836956
0.0076626
0.00690332
0.00615179
0.00545116
0.00481132
0.00420615
0.00360082
0.00300435
0.000123124
0.000703337
0.00144538
0.00230999
0.00327725
0.00428214
0.00525836
0.0061598
0.00696241
0.00765796
0.00824742
0.0087363
0.009132
0.00944255
0.00967607
0.00984077
0.00994515
0.00999808
0.0100089
0.00998723
0.00994285
0.00988547
0.00982487
0.00977134
0.00973495
0.00972388
0.00974235
0.00979025
0.0098632
0.00995245
0.0100428
0.0101137
0.0101376
0.0100814
0.00991133
0.00960071
0.00914002
0.00854414
0.00785294
0.00712256
0.00640789
0.00574417
0.00513239
0.00453929
0.00392421
0.00330528
0.00012291
0.000689926
0.00152171
0.00249213
0.00353469
0.00458357
0.00558371
0.00649819
0.00730786
0.00800681
0.00859729
0.00908581
0.00948069
0.00979073
0.0100247
0.010191
0.0102982
0.0103548
0.0103695
0.0103511
0.0103085
0.010251
0.0101875
0.0101276
0.0100806
0.0100545
0.0100546
0.0100833
0.0101376
0.0102098
0.0102865
0.0103469
0.0103631
0.0103014
0.0101293
0.00982294
0.00937661
0.00880742
0.00815491
0.00746994
0.00679985
0.00617228
0.00558504
0.00500579
0.0043924
0.00374734
0.000124864
0.000707404
0.0016419
0.00272034
0.00383624
0.00492488
0.0059423
0.00686152
0.00766976
0.00836469
0.00895044
0.00943455
0.00982589
0.0101335
0.0103663
0.0105326
0.0106406
0.0106982
0.0107136
0.010695
0.0106507
0.0105895
0.01052
0.0104516
0.0103934
0.0103536
0.010339
0.010352
0.0103918
0.0104522
0.0105208
0.010577
0.0105926
0.010535
0.0103734
0.0100872
0.00967294
0.00914833
0.00854891
0.00791822
0.00729558
0.00670314
0.00613954
0.00558051
0.00498971
0.00435079
0.000127902
0.000750359
0.00179322
0.00297246
0.00415371
0.00527565
0.0063047
0.00722325
0.00802503
0.0087116
0.00928918
0.00976627
0.0101521
0.0104559
0.0106861
0.010851
0.0109583
0.0110154
0.01103
0.0110099
0.0109629
0.0108975
0.0108224
0.0107464
0.0106798
0.0106301
0.0106039
0.0106055
0.0106353
0.0106887
0.0107537
0.0108101
0.0108305
0.0107839
0.010642
0.0103872
0.0100169
0.0095479
0.00900974
0.00843813
0.00786503
0.00730939
0.00677063
0.0062357
0.00568059
0.00508295
0.000131306
0.000811151
0.00196196
0.00323006
0.00446649
0.00561513
0.00665152
0.00756628
0.0083591
0.00903525
0.00960298
0.0100717
0.0104511
0.0107501
0.0109771
0.01114
0.0112461
0.0113025
0.0113163
0.011295
0.0112461
0.0111778
0.0110996
0.0110199
0.0109475
0.0108907
0.0108568
0.010851
0.010875
0.0109247
0.010989
0.0110483
0.0110766
0.0110451
0.0109288
0.0107114
0.0103921
0.00998405
0.0095111
0.00900155
0.00848074
0.00796467
0.00745666
0.00694867
0.00643058
0.00589023
0.000134655
0.000883017
0.00213579
0.00347946
0.00476119
0.00593089
0.00697177
0.00788135
0.00866444
0.00932966
0.00988713
0.0103472
0.0107198
0.0110139
0.0112377
0.0113987
0.0115039
0.0115602
0.0115739
0.0115529
0.0115048
0.0114372
0.0113585
0.0112772
0.0112019
0.0111414
0.0111034
0.0110938
0.0111147
0.0111628
0.0112274
0.0112904
0.0113275
0.0113129
0.011224
0.0110467
0.0107803
0.0104346
0.0100278
0.00958208
0.00911711
0.00864585
0.00817263
0.00769552
0.00721129
0.00671782
0.000137742
0.000960215
0.00230471
0.00371139
0.00503009
0.00621658
0.00726037
0.00816457
0.0089383
0.00959306
0.0101407
0.0105925
0.0109587
0.0112482
0.0114692
0.0116288
0.0117339
0.0117913
0.0118075
0.0117894
0.0117442
0.0116792
0.0116024
0.0115222
0.0114472
0.0113861
0.011347
0.0113359
0.0113554
0.0114024
0.0114672
0.0115331
0.0115782
0.0115795
0.0115172
0.0113794
0.0111643
0.0108788
0.0105369
0.0101552
0.0097492
0.00932916
0.00889878
0.00845712
0.00800292
0.00753845
0.000140478
0.001037
0.00246091
0.00392016
0.0052695
0.00646983
0.00751589
0.00841527
0.00918065
0.00982601
0.0103648
0.0108091
0.0111695
0.0114551
0.0116739
0.0118334
0.0119401
0.0120004
0.0120207
0.0120073
0.0119669
0.0119067
0.0118342