/*--------------------------------*- C++ -*----------------------------------*\
  =========                 |
  \\      /  F ield         | OpenFOAM: The Open Source CFD Toolbox
   \\    /   O peration     | Website:  https://openfoam.org
    \\  /    A nd           | Version:  7
     \\/     M anipulation  |
\*---------------------------------------------------------------------------*/
FoamFile
{
    version     2.0;
    format      ascii;
    class       volScalarField;
    location    "0.25";
    object      p;
}
// * * * * * * * * * * * * * * * * * * * * * * * * * * * * * * * * * * * * * //

dimensions      [1 -1 -2 0 0 0 0];

internalField   nonuniform List<scalar> 
9072
(
1906.29
1909.62
1916.94
1925.35
1932.65
1938.66
1943.47
1947.35
1950.55
1953.27
1955.64
1957.74
1959.61
1961.24
1962.62
1963.7
1964.45
1964.82
1964.77
1964.29
1963.39
1962.11
1960.55
1958.88
1957.33
1956.24
1956.05
1957.33
1960.79
1967.29
1977.86
1993.77
2016.72
2048.05
2089.41
2142.56
2209.24
2290.48
2385.1
2487.54
2586.09
2664.32
2711.57
2714.47
2729.55
2804.54
1876.22
1878.48
1884.75
1892.02
1898.69
1904.36
1909.01
1912.82
1915.99
1918.69
1921.02
1923.06
1924.83
1926.35
1927.58
1928.51
1929.08
1929.27
1929.05
1928.4
1927.34
1925.94
1924.31
1922.61
1921.1
1920.12
1920.13
1921.72
1925.58
1932.6
1943.8
1960.38
1983.59
2015.27
2057.06
2110.73
2177.9
2259.72
2355.63
2461.39
2565.78
2649.44
2693.71
2690.01
2677.14
2761.98
1845.68
1848.19
1853.15
1859.14
1864.83
1869.81
1874
1877.49
1880.41
1882.89
1885.01
1886.82
1888.34
1889.59
1890.52
1891.13
1891.38
1891.23
1890.68
1889.72
1888.39
1886.76
1884.96
1883.18
1881.69
1880.84
1881.11
1883.09
1887.5
1895.21
1907.24
1924.76
1949.04
1981.71
2024.39
2078.68
2146
2227.21
2321.75
2425.97
2530.25
2617
2665.38
2669.45
2650.67
2733.81
1814.69
1817.82
1822.03
1826.97
1831.72
1835.93
1839.53
1842.55
1845.09
1847.23
1849.01
1850.49
1851.68
1852.56
1853.11
1853.32
1853.16
1852.6
1851.64
1850.29
1848.61
1846.68
1844.64
1842.7
1841.15
1840.36
1840.81
1843.11
1847.97
1856.27
1869
1887.33
1912.5
1945.97
1989.29
2043.95
2111.11
2191.3
2283.64
2384.54
2485.84
2573.72
2630.38
2650.16
2646.14
2722.74
1783.22
1787.05
1790.91
1795.16
1799.16
1802.68
1805.69
1808.23
1810.35
1812.1
1813.53
1814.65
1815.46
1815.95
1816.11
1815.9
1815.31
1814.31
1812.93
1811.17
1809.09
1806.81
1804.48
1802.31
1800.6
1799.75
1800.25
1802.69
1807.8
1816.45
1829.63
1848.45
1874.15
1908.08
1951.69
2006.31
2072.93
2151.82
2241.87
2339.69
2438.47
2527.84
2594.01
2631.67
2647.49
2729.21
1751.26
1755.72
1759.46
1763.25
1766.69
1769.65
1772.15
1774.24
1775.96
1777.34
1778.41
1779.17
1779.62
1779.74
1779.5
1778.88
1777.87
1776.45
1774.63
1772.45
1769.97
1767.31
1764.63
1762.17
1760.23
1759.2
1759.59
1762
1767.16
1775.91
1789.24
1808.24
1834.09
1868.1
1911.6
1965.81
2031.54
2108.88
2196.64
2291.78
2388.8
2480.16
2555.64
2610.44
2648.55
2743.43
1718.81
1723.8
1727.52
1731.01
1734.03
1736.54
1738.62
1740.33
1741.69
1742.73
1743.47
1743.9
1744.01
1743.76
1743.15
1742.14
1740.72
1738.89
1736.65
1734.04
1731.15
1728.09
1725.04
1722.22
1719.96
1718.66
1718.81
1721.03
1726.02
1734.65
1747.85
1766.71
1792.39
1826.1
1869.1
1922.51
1987
2062.54
2147.96
2240.61
2336.18
2429.35
2512.91
2582.96
2643.8
2756.32
1685.86
1691.29
1695.05
1698.34
1701.05
1703.21
1704.94
1706.32
1707.37
1708.12
1708.56
1708.69
1708.48
1707.91
1706.95
1705.57
1703.77
1701.53
1698.88
1695.85
1692.54
1689.06
1685.6
1682.38
1679.73
1678.06
1677.85
1679.72
1684.37
1692.64
1705.48
1723.92
1749.08
1782.14
1824.27
1876.49
1939.38
2012.84
2095.76
2185.89
2279.93
2374.25
2464.1
2546.86
2629.03
2759.81
1652.42
1658.2
1662.01
1665.18
1667.65
1669.53
1670.99
1672.1
1672.9
1673.4
1673.59
1673.45
1672.96
1672.08
1670.8
1669.07
1666.9
1664.28
1661.23
1657.79
1654.05
1650.14
1646.23
1642.57
1639.47
1637.33
1636.65
1638.03
1642.17
1649.89
1662.12
1679.87
1704.22
1736.29
1777.18
1827.85
1888.77
1959.8
2039.95
2127.31
2219.39
2313.8
2407.83
2500.31
2601.4
2749.56
1618.48
1624.54
1628.41
1631.49
1633.77
1635.44
1636.69
1637.6
1638.19
1638.48
1638.45
1638.08
1637.34
1636.19
1634.6
1632.56
1630.04
1627.05
1623.61
1619.76
1615.6
1611.24
1606.86
1602.71
1599.09
1596.41
1595.16
1595.92
1599.39
1606.38
1617.78
1634.59
1657.85
1688.61
1727.93
1776.66
1835.23
1903.46
1980.42
2064.54
2153.91
2246.99
2342.73
2441.44
2558.21
2721.17
1584.05
1590.33
1594.25
1597.25
1599.39
1600.9
1601.99
1602.74
1603.17
1603.3
1603.09
1602.52
1601.55
1600.16
1598.3
1595.95
1593.11
1589.76
1585.95
1581.7
1577.1
1572.28
1567.41
1562.73
1558.54
1555.24
1553.32
1553.35
1556.01
1562.09
1572.47
1588.11
1610.01
1639.18
1676.59
1723.03
1778.85
1843.83
1917.11
1997.32
2082.94
2172.92
2267.54
2368.2
2496.65
2670
1549.13
1555.58
1559.51
1562.45
1564.48
1565.87
1566.85
1567.48
1567.8
1567.79
1567.44
1566.7
1565.54
1563.92
1561.81
1559.19
1556.04
1552.36
1548.17
1543.52
1538.49
1533.2
1527.81
1522.57
1517.76
1513.78
1511.1
1510.28
1512
1517.02
1526.19
1540.45
1560.76
1588.05
1623.24
1667.04
1719.71
1780.97
1850
1925.49
2006.11
2090.94
2181.13
2278.41
2413.49
2589.88
1513.73
1520.29
1524.23
1527.1
1529.05
1530.35
1531.24
1531.8
1532.03
1531.93
1531.46
1530.58
1529.25
1527.44
1525.1
1522.22
1518.77
1514.77
1510.22
1505.18
1499.71
1493.94
1488.02
1482.18
1476.71
1471.99
1468.46
1466.7
1467.35
1471.16
1478.96
1491.64
1510.13
1535.3
1567.98
1608.79
1657.91
1714.99
1779.14
1849.03
1923.26
2000.65
2082.64
2169.79
2304.85
2470.5
1477.85
1484.49
1488.39
1491.2
1493.08
1494.32
1495.16
1495.67
1495.85
1495.68
1495.11
1494.12
1492.64
1490.65
1488.1
1484.98
1481.26
1476.94
1472.04
1466.61
1460.71
1454.44
1447.97
1441.5
1435.33
1429.8
1425.37
1422.57
1422.04
1424.51
1430.78
1441.71
1458.17
1480.99
1510.89
1548.41
1593.61
1646.04
1704.71
1768.11
1834.53
1902.08
1971.6
2040.27
2166.25
2294.39
1441.51
1448.2
1452.02
1454.76
1456.58
1457.79
1458.61
1459.09
1459.24
1459.02
1458.39
1457.3
1455.69
1453.54
1450.8
1447.45
1443.46
1438.84
1433.61
1427.79
1421.44
1414.68
1407.64
1400.53
1393.6
1387.22
1381.8
1377.88
1376.08
1377.08
1381.68
1390.69
1404.95
1425.2
1452.09
1486.03
1526.99
1574.36
1626.98
1683.06
1740.29
1795.61
1847.88
1888.38
1991.47
2029.37
1404.72
1411.36
1415.1
1417.75
1419.56
1420.77
1421.6
1422.09
1422.24
1422.01
1421.33
1420.16
1418.46
1416.17
1413.26
1409.7
1405.47
1400.58
1395.02
1388.82
1382.05
1374.8
1367.19
1359.41
1351.71
1344.43
1337.98
1332.86
1329.68
1329.11
1331.9
1338.83
1350.69
1368.16
1391.78
1421.86
1458.21
1500.08
1546.07
1593.98
1640.65
1681.29
1710.89
1713.78
1762.57
1635.83
2.27263
2.26807
2.26502
2.263
2.26264
2.2635
2.26487
2.26606
2.26647
2.26567
2.26342
2.25962
2.25426
2.24745
2.23935
2.23015
2.22006
2.20934
2.19817
2.18676
2.17527
2.16384
2.15262
2.14172
2.13126
2.12131
2.11192
2.10317
2.09512
2.08782
2.08131
2.07562
2.0708
2.06684
2.06376
2.06154
2.06008
2.05936
2.24376
2.23975
2.23674
2.23426
2.23335
2.23368
2.23472
2.23564
2.23588
2.235
2.23273
2.22895
2.22366
2.21694
2.20893
2.19984
2.18987
2.17924
2.16818
2.15686
2.14545
2.1341
2.12295
2.11212
2.10173
2.09184
2.0825
2.0738
2.06578
2.0585
2.05201
2.04633
2.04149
2.03752
2.03439
2.03209
2.03051
2.02958
2.21485
2.21075
2.20776
2.20519
2.20403
2.20414
2.20483
2.20553
2.20562
2.20464
2.20233
2.19855
2.19329
2.18663
2.17869
2.16968
2.15978
2.14922
2.13822
2.12697
2.11563
2.10433
2.09323
2.08245
2.0721
2.06226
2.05296
2.0443
2.03631
2.02904
2.02255
2.01685
2.01199
2.00797
2.00479
2.00242
2.00079
1.9999
2.18581
2.18125
2.17812
2.17564
2.17444
2.17444
2.17505
2.17564
2.17564
2.1746
2.17225
2.16844
2.16318
2.15653
2.14863
2.13965
2.12978
2.11926
2.10829
2.09706
2.08576
2.0745
2.06342
2.05267
2.04235
2.03255
2.02329
2.01465
2.00668
1.99941
1.99291
1.98718
1.98227
1.9782
1.97497
1.97255
1.97087
1.97005
2.15649
2.15131
2.14793
2.14565
2.1446
2.1447
2.14537
2.14597
2.14596
2.14488
2.14249
2.13865
2.13335
2.12668
2.11876
2.10978
2.09991
2.08937
2.07838
2.06715
2.05587
2.04462
2.03355
2.02279
2.01249
2.0027
1.99346
1.98484
1.97688
1.96961
1.96308
1.9573
1.95234
1.94821
1.94492
1.94247
1.94077
1.94002
2.1267
2.12089
2.11722
2.11525
2.11451
2.1149
2.11578
2.11652
2.11657
2.1155
2.11308
2.10918
2.10381
2.09708
2.08911
2.08007
2.07016
2.05956
2.04851
2.03725
2.02595
2.0147
2.00362
1.99284
1.98251
1.97272
1.96349
1.95486
1.9469
1.93962
1.93305
1.92722
1.9222
1.91801
1.91468
1.9122
1.91052
1.90983
2.09632
2.08991
2.08593
2.08441
2.08416
2.08503
2.08628
2.08728
2.08746
2.08645
2.084
2.08003
2.07457
2.06772
2.05965
2.05053
2.04053
2.02984
2.0187
2.00736
1.99603
1.98476
1.97364
1.96282
1.95245
1.94262
1.93336
1.92471
1.91673
1.90942
1.90282
1.89694
1.89185
1.88762
1.88425
1.88177
1.88012
1.8795
2.06516
2.05824
2.05398
2.0531
2.05352
2.05507
2.05686
2.05823
2.05864
2.05771
2.05525
2.05119
2.0456
2.03859
2.03037
2.02112
2.01101
2.00021
1.98895
1.97751
1.96611
1.9548
1.94363
1.93274
1.92228
1.91238
1.90307
1.89438
1.88636
1.87901
1.87237
1.86644
1.86131
1.85703
1.85365
1.85117
1.84957
1.849
2.033
2.02576
2.02123
2.02127
2.02258
2.02501
2.02751
2.02939
2.03009
2.02928
2.02682
2.02266
2.01691
2.0097
2.00127
1.99184
1.98159
1.97067
1.95927
1.94769
1.93618
1.92479
1.91355
1.90257
1.89202
1.88202
1.87262
1.86386
1.85577
1.84838
1.8417
1.83574
1.83057
1.82627
1.82288
1.8204
1.81885
1.81834
1.99944
1.99223
1.98748
1.98881
1.99128
1.99486
1.99826
2.00076
2.00183
2.00119
1.99872
1.99445
1.9885
1.98105
1.97236
1.9627
1.95227
1.9412
1.92963
1.91788
1.90623
1.89473
1.88339
1.87232
1.86165
1.85153
1.84201
1.83314
1.82497
1.81752
1.8108
1.80483
1.79965
1.79534
1.79194
1.78948
1.78798
1.78752
1.96384
1.95734
1.95244
1.9556
1.9596
1.9646
1.9691
1.97238
1.9739
1.97344
1.97097
1.96657
1.96039
1.95266
1.94366
1.93371
1.92305
1.91179
1.90004
1.88808
1.87623
1.86458
1.85313
1.84193
1.83114
1.82088
1.81123
1.80223
1.79396
1.78644
1.77968
1.77371
1.76853
1.76423
1.76083
1.75839
1.75695
1.75653
1.92509
1.92059
1.91575
1.9215
1.92747
1.93423
1.94006
1.94427
1.94633
1.94609
1.94361
1.93905
1.93262
1.92457
1.91522
1.90492
1.89396
1.88245
1.87046
1.85826
1.84617
1.83433
1.82272
1.81139
1.80047
1.79007
1.78027
1.77113
1.76274
1.75514
1.74836
1.74238
1.73723
1.73294
1.72956
1.72714
1.72574
1.72537
1.88123
1.88138
1.87695
1.88631
1.89487
1.90377
1.91119
1.91647
1.91916
1.91917
1.91667
1.91192
1.90519
1.8968
1.88704
1.87632
1.865
1.85318
1.84091
1.82842
1.81605
1.80396
1.79216
1.78068
1.76961
1.75907
1.74912
1.73984
1.73132
1.72364
1.71682
1.71086
1.70573
1.70147
1.69811
1.69572
1.69437
1.69404
1.82877
1.83903
1.83556
1.84982
1.86177
1.87324
1.88251
1.88903
1.89242
1.89272
1.89019
1.8852
1.87814
1.86934
1.85913
1.84794
1.83617
1.82397
1.81136
1.79855
1.78586
1.77348
1.76143
1.74976
1.73854
1.72786
1.71777
1.70835
1.69971
1.69195
1.6851
1.67914
1.67404
1.66981
1.66647
1.66411
1.66282
1.66255
1.76068
1.79093
1.7909
1.81178
1.82815
1.84269
1.85409
1.86198
1.86615
1.86675
1.86417
1.8589
1.85144
1.84218
1.83147
1.81975
1.80747
1.79481
1.78181
1.76864
1.7556
1.74289
1.73056
1.71866
1.70726
1.69643
1.68621
1.67667
1.66793
1.66009
1.65319
1.64723
1.64215
1.63795
1.63464
1.63233
1.63109
1.63087
1.6647
1.72518
1.74186
1.7717
1.79391
1.81213
1.82597
1.83537
1.84036
1.84127
1.83861
1.83301
1.82507
1.81528
1.80401
1.79171
1.77887
1.7657
1.75227
1.73871
1.72531
1.71224
1.6996
1.68745
1.67585
1.66485
1.6545
1.64486
1.63603
1.62811
1.62116
1.61518
1.61011
1.60592
1.60265
1.60037
1.5992
1.59903
1346.53
1352.89
1356.61
1359.13
1360.92
1362.17
1363.06
1363.62
1363.82
1363.59
1362.89
1361.66
1359.83
1357.37
1354.24
1350.41
1345.85
1340.56
1334.54
1327.81
1320.4
1312.4
1303.9
1295.07
1286.15
1277.41
1269.26
1262.17
1256.71
1253.5
1253.27
1256.72
1264.54
1277.33
1295.45
1318.98
1347.52
1380.03
1414.71
1448.62
1477.05
1492.08
1480.65
1415.75
1276.28
719.018
1265.52
1271.53
1275.03
1277.44
1279.26
1280.63
1281.67
1282.37
1282.68
1282.54
1281.86
1280.59
1278.66
1276.03
1272.66
1268.51
1263.57
1257.8
1251.2
1243.77
1235.52
1226.5
1216.77
1206.47
1195.77
1184.92
1174.27
1164.26
1155.4
1148.29
1143.55
1141.83
1143.68
1149.51
1159.47
1173.35
1190.46
1209.46
1228.15
1242.97
1248.17
1234.26
1185.25
1071.59
866.46
572.428
1182.83
1188.38
1191.54
1193.84
1195.71
1197.23
1198.44
1199.32
1199.77
1199.73
1199.09
1197.8
1195.8
1193.03
1189.45
1185.02
1179.71
1173.49
1166.34
1158.24
1149.17
1139.14
1128.17
1116.34
1103.78
1090.69
1077.37
1064.21
1051.68
1040.34
1030.76
1023.49
1018.96
1017.44
1018.87
1022.83
1028.48
1034.39
1038.36
1036.99
1025.13
995.102
936.291
835.239
683.164
540.919
1098.67
1103.64
1106.42
1108.61
1110.53
1112.2
1113.59
1114.64
1115.24
1115.29
1114.71
1113.4
1111.32
1108.41
1104.63
1099.94
1094.29
1087.65
1079.98
1071.24
1061.37
1050.34
1038.14
1024.78
1010.32
994.901
978.771
962.279
945.871
930.062
915.385
902.322
891.22
882.198
875.059
869.27
863.95
857.814
848.98
834.739
811.292
773.481
715.273
631.166
514.372
391.202
1013.23
1017.53
1019.93
1022
1023.97
1025.77
1027.33
1028.54
1029.27
1029.4
1028.84
1027.52
1025.36
1022.32
1018.34
1013.39
1007.42
1000.38
992.214
982.859
972.239
960.273
946.882
932.011
915.648
897.865
878.845
858.9
838.458
818.021
798.109
779.171
761.493
745.109
729.739
714.806
699.483
682.785
663.326
639.233
608.192
567.085
512.235
440.582
348.523
248.966
926.757
930.296
932.332
934.275
936.259
938.16
939.852
941.185
942.01
942.204
941.662
940.301
938.054
934.867
930.692
925.485
919.196
911.771
903.141
893.222
881.907
869.069
854.57
838.27
820.066
799.937
778
754.534
729.97
704.833
679.668
654.941
630.922
607.625
584.749
561.756
537.894
512.567
484.86
453.68
418.393
377.764
329.862
273.291
207.407
140.037
839.491
842.19
843.869
845.631
847.579
849.538
851.323
852.748
853.647
853.881
853.337
851.927
849.578
846.236
841.851
836.379
829.77
821.967
812.895
802.454
790.514
776.906
761.426
743.841
723.927
701.544
676.728
649.735
621.033
591.218
560.925
530.708
500.872
471.498
442.301
412.83
382.344
350.741
317.203
280.947
243.836
206.741
168.816
129.476
88.088
47.4576
751.702
753.451
754.753
756.238
758.086
760.06
761.904
763.399
764.355
764.617
764.061
762.589
760.126
756.612
751.999
746.245
739.303
731.119
721.618
710.699
698.214
683.964
667.686
649.043
627.65
603.202
575.624
545.171
512.402
478.052
442.918
407.725
372.828
338.533
304.58
270.377
234.573
199.111
163.778
125.936
91.1225
62.0265
36.7764
13.8293
-8.85081
-30.2265
663.673
664.265
665.131
666.206
667.9
669.864
671.756
673.317
674.329
674.618
674.045
672.503
669.909
666.203
661.337
655.273
647.97
639.386
629.457
618.09
605.139
590.396
573.566
554.207
531.71
505.52
475.413
441.661
404.987
366.291
326.55
286.816
247.477
209.221
171.851
135.208
93.8584
57.4728
35.2782
17.2953
3.90828
-6.09216
-16.1643
-28.427
-44.9932
-65.0306
575.617
574.651
575.006
575.582
577.12
579.087
581.047
582.691
583.774
584.1
583.513
581.893
579.15
575.223
570.065
563.646
555.937
546.911
536.529
524.721
511.367
496.289
479.227
459.66
436.656
409.263
377.008
340.159
299.616
256.384
211.815
168.008
125.812
86.2669
48.3251
24.7808
9.14349
0.372131
-2.71601
-4.97213
-6.42828
-7.58161
-9.11846
-11.5985
-15.4652
-25.1152
487.32
484.311
484.31
484.424
485.863
487.888
489.961
491.726
492.906
493.284
492.687
490.979
488.063
483.875
478.376
471.542
463.363
453.836
442.958
430.703
416.997
401.742
384.84
365.797
343.192
315.396
281.423
241.402
196.64
148.836
101.504
59.2486
25.8558
9.91801
-1.36608
-4.94187
-5.12524
-5.23893
-5.46124
-5.79892
-6.15874
-6.4945
-6.87325
-7.34806
-7.94218
-8.89947
398.109
393.064
393.358
392.938
394.363
396.539
398.793
400.721
402.023
402.464
401.857
400.05
396.932
392.443
386.552
379.247
370.536
360.448
349.025
336.297
322.23
306.821
290.407
272.88
251.998
224.886
189.584
146.447
99.3411
53.4452
18.993
3.9437
-3.96129
-4.87017
-5.2584
-5.37259
-5.43898
-5.53605
-5.68447
-5.87297
-6.07944
-6.27794
-6.45842
-6.62906
-6.7975
-7.00839
308.577
302.737
301.304
301.375
303.093
305.537
308.034
310.153
311.586
312.092
311.47
309.548
306.19
301.346
294.997
287.13
277.749
266.899
254.661
241.112
226.152
209.859
193.964
179.827
163.348
139.25
104.668
62.9057
25.3731
4.37226
-3.72342
-4.80113
-5.03331
-5.15003
-5.28348
-5.41459
-5.522
-5.65593
-5.81776
-6.00535
-6.21233
-6.42544
-6.63246
-6.82523
-6.99408
-7.11977
220.042
212.193
210.337
210.707
212.486
215.031
217.631
219.854
221.363
221.901
221.235
219.133
215.395
209.991
202.912
194.122
183.594
171.397
157.701
142.639
125.763
107.385
92.9211
86.8552
80.913
65.7216
39.0401
12.3774
-0.966096
-4.46505
-4.88042
-4.93815
-5.05543
-5.20375
-5.33771
-5.47648
-5.6132
-5.76163
-5.92892
-6.11566
-6.31737
-6.52784
-6.74266
-6.95759
-7.16455
-7.35435
132.047
125.304
121.667
121.095
122.33
124.544
126.717
128.624
129.904
130.273
129.434
126.987
122.573
116.252
108.13
98.2685
86.7728
74.0482
60.6059
46.8238
31.7132
15.8696
8.18479
13.1905
20.6838
19.0634
7.04218
-3.11569
-4.63174
-4.68261
-4.81153
-4.97201
-5.10979
-5.25599
-5.40155
-5.54771
-5.69467
-5.8485
-6.01505
-6.19563
-6.38832
-6.59076
-6.80157
-7.01931
-7.24043
-7.46098
51.4437
50.9488
41.6964
39.4755
40.4234
41.7965
43.0771
44.0877
44.7159
44.7293
43.7941
41.3564
36.911
30.8618
23.6907
15.8591
8.03334
1.23096
-3.54574
-5.75332
-6.38321
-7.04006
-6.11495
-3.24274
0.106158
-0.752572
-4.05806
-4.49656
-4.62358
-4.74239
-4.86671
-5.01536
-5.16004
-5.30603
-5.453
-5.60026
-5.74903
-5.90327
-6.0669
-6.2419
-6.42859
-6.62713
-6.83815
-7.06199
-7.29632
-7.53328
9.70459
6.44156
2.3314
2.1029
2.89288
3.65881
4.2153
4.44271
4.01375
3.18643
2.24608
1.04183
-0.44382
-1.89793
-3.13423
-4.07484
-5.22963
-5.83107
-5.79031
-5.24705
-4.24918
-3.96138
-3.94448
-3.83636
-3.74692
-4.1982
-4.29913
-4.43029
-4.60969
-4.75961
-4.90211
-5.04856
-5.19367
-5.33801
-5.4822
-5.62684
-5.77345
-5.92493
-6.08439
-6.25428
-6.43648
-6.63309
-6.84687
-7.08054
-7.33343
-7.59503
-3.27906
-2.3448
-2.49807
-2.5864
-2.61097
-2.69051
-2.78411
-2.87851
-3.02144
-3.12525
-3.12641
-3.19292
-3.21764
-3.25687
-3.33344
-3.35049
-3.40217
-3.4857
-3.57989
-3.66619
-3.64812
-3.63754
-3.69475
-3.79233
-3.92603
-4.1322
-4.31938
-4.46619
-4.62889
-4.77977
-4.92478
-5.06819
-5.20954
-5.34945
-5.48878
-5.62861
-5.77063
-5.91731
-6.07153
-6.23623
-6.4145
-6.61007
-6.82791
-7.07362
-7.34944
-7.64623
-2.84335
-2.80911
-2.78176
-2.74882
-2.72521
-2.72128
-2.7301
-2.74704
-2.77377
-2.80975
-2.84025
-2.88825
-2.92395
-2.94754
-2.98499
-3.04507
-3.11509
-3.20092
-3.30475
-3.43139
-3.58569
-3.71056
-3.81109
-3.91879
-4.04644
-4.19692
-4.35478
-4.5035
-4.65252
-4.79636
-4.9362
-5.0736
-5.20879
-5.34243
-5.47538
-5.60888
-5.74471
-5.88529
-6.03361
-6.19313
-6.36794
-6.56326
-6.78615
-7.04511
-7.34539
-7.67909
-2.88235
-2.82906
-2.81741
-2.80714
-2.80535
-2.8146
-2.83343
-2.85889
-2.88927
-2.92291
-2.95425
-2.98422
-3.0351
-3.08493
-3.13749
-3.20141
-3.27487
-3.35959
-3.45619
-3.56473
-3.6841
-3.79679
-3.89888
-4.004
-4.12161
-4.25494
-4.39392
-4.53244
-4.66993
-4.80462
-4.93652
-5.06614
-5.19375
-5.31986
-5.44532
-5.57142
-5.70008
-5.83383
-5.9759
-6.13023
-6.30176
-6.49693
-6.7245
-6.99536
-7.31734
-7.68233
-2.91319
-2.88804
-2.8823
-2.87716
-2.88093
-2.89428
-2.91622
-2.94498
-2.97885
-3.0159
-3.05426
-3.09486
-3.14371
-3.19566
-3.25175
-3.31466
-3.38576
-3.4661
-3.55567
-3.6531
-3.75572
-3.85861
-3.9604
-4.06543
-4.17815
-4.30008
-4.42622
-4.55316
-4.67957
-4.80428
-4.92699
-5.04781
-5.16688
-5.28461
-5.40177
-5.51975
-5.64059
-5.76698
-5.90238
-6.05112
-6.21869
-6.41229
-6.6416
-6.91891
-7.25472
-7.64357
-2.97746
-2.95541
-2.95207
-2.95072
-2.95636
-2.9701
-2.99142
-3.01931
-3.05258
-3.09
-3.13064
-3.17477
-3.2235
-3.276
-3.33299
-3.3959
-3.46582
-3.54339
-3.6284
-3.71977
-3.8156
-3.91363
-4.01303
-4.11538
-4.22247
-4.33468
-4.44984
-4.56585
-4.68152
-4.79603
-4.90904
-5.02049
-5.13044
-5.23918
-5.3475
-5.45684
-5.56932
-5.68773
-5.81561
-5.95746
-6.11898
-6.30752
-6.5328
-6.80725
-7.14065
-7.54706
-3.04631
-3.02885
-3.02565
-3.02619
-3.033
-3.04694
-3.06762
-3.0944
-3.12649
-3.16309
-3.20363
-3.24806
-3.29668
-3.34944
-3.40678
-3.46951
-3.53827
-3.61331
-3.69435
-3.78057
-3.87078
-3.96366
-4.05856
-4.15592
-4.25636
-4.35978
-4.46504
-4.57083
-4.67625
-4.78071
-4.88395
-4.98583
-5.08635
-5.18577
-5.28489
-5.38517
-5.48872
-5.59826
-5.71722
-5.84996
-6.00203
-6.18044
-6.39433
-6.65644
-6.98023
-7.36441
-3.11456
-3.10267
-3.1006
-3.10262
-3.11036
-3.12448
-3.14469
-3.17056
-3.20153
-3.23706
-3.27675
-3.32048
-3.36834
-3.42045
-3.47709
-3.53868
-3.6055
-3.67757
-3.75455
-3.83576
-3.92037
-4.00757
-4.09682
-4.18808
-4.28143
-4.37654
-4.47262
-4.56882
-4.66449
-4.75925
-4.85289
-4.94526
-5.03631
-5.12628
-5.21596
-5.30677
-5.40068
-5.50016
-5.60828
-5.72903
-5.86738
-6.02956
-6.22355
-6.46117
-6.75573
-7.1049
-3.18233
-3.17577
-3.17517
-3.17858
-3.1871
-3.20128
-3.22101
-3.24598
-3.2758
-3.31008
-3.34854
-3.39102
-3.43756
-3.48825
-3.54328
-3.60286
-3.66705
-3.73571
-3.80847
-3.88472
-3.96381
-4.04515
-4.12831
-4.21306
-4.29918
-4.38627
-4.47367
-4.56078
-4.64717
-4.73263
-4.81698
-4.90006
-4.98175
-5.06227
-5.14236
-5.22329
-5.30676
-5.39482
-5.49004
-5.59569
-5.71588
-5.85571
-6.0212
-6.22268
-6.47249
-6.77402
-3.24908
-3.24734
-3.24811
-3.25276
-3.26193
-3.27611
-3.29531
-3.31933
-3.3479
-3.38076
-3.41767
-3.45852
-3.50329
-3.55205
-3.6049
-3.66191
-3.72304
-3.78804
-3.85648
-3.9278
-4.00143
-4.0769
-4.15384
-4.23195
-4.3109
-4.39022
-4.46934
-4.54781
-4.62539
-4.70194
-4.77734
-4.85138
-4.9239
-4.99505
-5.06545
-5.13616
-5.20846
-5.28388
-5.36432
-5.45215
-5.55014
-5.66149
-5.79118
-5.94468
-6.13228
-6.36196
-3.31448
-3.31651
-3.31848
-3.32424
-3.33395
-3.34809
-3.36675
-3.38981
-3.41709
-3.44841
-3.48359
-3.52255
-3.56524
-3.6117
-3.66199
-3.7161
-3.7739
-3.83506
-3.89912
-3.96552
-4.03376
-4.10342
-4.17418
-4.24573
-4.31766
-4.3895
-4.46074
-4.53104
-4.60024
-4.6683
-4.73509
-4.80037
-4.86391
-4.9258
-4.98652
-5.04679
-5.10743
-5.16937
-5.23376
-5.30196
-5.3753
-5.45499
-5.54225
-5.63945
-5.74848
-5.8682
-3.37788
-3.38268
-3.38562
-3.39238
-3.40258
-3.41667
-3.43481
-3.45692
-3.48291
-3.51265
-3.54602
-3.58292
-3.62333
-3.66726
-3.71474
-3.76572
-3.82
-3.87722
-3.93686
-3.99839
-4.06132
-4.1253
-4.19002
-4.25518
-4.32037
-4.38509
-4.44888
-4.51147
-4.57278
-4.63278
-4.69134
-4.74815
-4.80295
-4.85576
-4.90686
-4.95665
-5.00545
-5.05361
-5.10154
-5.14958
-5.19772
-5.24524
-5.29047
-5.33083
-5.36155
-5.37017
-3.43861
-3.44536
-3.44917
-3.45682
-3.46747
-3.48153
-3.49917
-3.52038
-3.54511
-3.57327
-3.60478
-3.63956
-3.67757
-3.71883
-3.76335
-3.81105
-3.8617
-3.9149
-3.97014
-4.02687
-4.08464
-4.14311
-4.20201
-4.26105
-4.3198
-4.37779
-4.43458
-4.48996
-4.54387
-4.59628
-4.64702
-4.69575
-4.74214
-4.78612
-4.8278
-4.86725
-4.90438
-4.93901
-4.97088
-4.99951
-5.02378
-5.04153
-5.04911
-5.0412
-5.00987
-4.93773
-3.4963
-3.50414
-3.50888
-3.51736
-3.52846
-3.54252
-3.55971
-3.58006
-3.60357
-3.63019
-3.65984
-3.69246
-3.72802
-3.76654
-3.80802
-3.85236
-3.89933
-3.94851
-3.99939
-4.05145
-4.10424
-4.15743
-4.21077
-4.26397
-4.31664
-4.36829
-4.41854
-4.46718
-4.51418
-4.5595
-4.60291
-4.64401
-4.68241
-4.71796
-4.75059
-4.7801
-4.80607
-4.82788
-4.8448
-4.85572
-4.85879
-4.85101
-4.82777
-4.78281
-4.70779
-4.58559
-3.55077
-3.55882
-3.56463
-3.57397
-3.58555
-3.59964
-3.61642
-3.63597
-3.65832
-3.68344
-3.71126
-3.74173
-3.77484
-3.8106
-3.84901
-3.88998
-3.93326
-3.97848
-4.02511
-4.07264
-4.12065
-4.16881
-4.21687
-4.26455
-4.31148
-4.3572
-4.40135
-4.44373
-4.48431
-4.52302
-4.55959
-4.59356
-4.62449
-4.65212
-4.67624
-4.69647
-4.71211
-4.72225
-4.72582
-4.72133
-4.70657
-4.67824
-4.63158
-4.56058
-4.45815
-4.31
-3.6018
-3.60927
-3.61667
-3.62681
-3.63888
-3.65303
-3.66945
-3.68826
-3.7095
-3.73316
-3.7592
-3.78757
-3.81827
-3.85131
-3.88669
-3.92431
-3.96397
-4.00529
-4.04779
-4.09098
-4.13441
-4.17778
-4.22084
-4.26334
-4.3049
-4.3451
-4.38358
-4.42016
-4.4548
-4.48737
-4.51759
-4.54496
-4.56897
-4.58929
-4.60558
-4.61732
-4.62367
-4.62355
-4.61568
-4.5984
-4.5694
-4.52546
-4.46222
-4.37451
-4.25716
-4.09951
-3.64909
-3.65621
-3.66514
-3.67619
-3.68874
-3.70296
-3.71904
-3.73714
-3.75732
-3.77958
-3.8039
-3.83025
-3.85862
-3.88901
-3.92142
-3.95578
-3.9919
-4.02944
-4.06796
-4.10696
-4.14604
-4.18487
-4.22323
-4.26087
-4.29744
-4.33254
-4.36581
-4.39705
-4.42619
-4.4531
-4.47747
-4.49876
-4.51647
-4.53015
-4.53938
-4.54355
-4.54174
-4.53283
-4.51548
-4.488
-4.44818
-4.3931
-4.31903
-4.22188
-4.09835
-3.94107
-3.69286
-3.70039
-3.71052
-3.72245
-3.73544
-3.7497
-3.76545
-3.78286
-3.80201
-3.82294
-3.84563
-3.87006
-3.89619
-3.92404
-3.95359
-3.9848
-4.01751
-4.05141
-4.0861
-4.12112
-4.15605
-4.19062
-4.22458
-4.2577
-4.28966
-4.32007
-4.34856
-4.37492
-4.39903
-4.42075
-4.43975
-4.45553
-4.46754
-4.47531
-4.47832
-4.4759
-4.46712
-4.45087
-4.42588
-4.39056
-4.3429
-4.2804
-4.20003
-4.09873
-3.97475
-3.82329
-3.73386
-3.74202
-3.75319
-3.76591
-3.77929
-3.79356
-3.80896
-3.82568
-3.84384
-3.8635
-3.88465
-3.90725
-3.93128
-3.95672
-3.98356
-4.01177
-4.04123
-4.07166
-4.10272
-4.13396
-4.165
-4.19556
-4.22542
-4.25436
-4.28207
-4.30817
-4.33231
-4.35423
-4.37377
-4.39077
-4.40491
-4.41571
-4.42265
-4.42521
-4.42284
-4.41484
-4.40028
-4.37811
-4.34717
-4.30604
-4.253
-4.18599
-4.10265
-4.00081
-3.87984
-3.73682
-3.77266
-3.78146
-3.79354
-3.80693
-3.82061
-3.83482
-3.84984
-3.86588
-3.88309
-3.90154
-3.92124
-3.94215
-3.96421
-3.98739
-4.0117
-4.03709
-4.06349
-4.09067
-4.1183
-4.146
-4.17341
-4.20024
-4.22629
-4.25134
-4.27513
-4.29729
-4.31746
-4.33536
-4.35079
-4.36355
-4.37334
-4.3797
-4.38215
-4.38017
-4.37322
-4.36056
-4.34132
-4.31453
-4.27915
-4.23397
-4.17755
-4.10827
-4.02433
-3.92426
-3.80823
-3.67456
-3.80977
-3.81913
-3.83196
-3.84588
-3.85976
-3.87384
-3.88844
-3.9038
-3.92011
-3.93743
-3.95578
-3.97509
-3.99532
-4.01641
-4.03836
-4.06115
-4.08471
-4.10885
-4.1333
-4.15771
-4.18174
-4.20512
-4.22764
-4.2491
-4.26926
-4.28778
-4.30433
-4.3186
-4.33035
-4.33936
-4.34532
-4.34779
-4.34632
-4.34044
-4.3296
-4.31313
-4.29019
-4.25991
-4.22137
-4.17356
-4.11536
-4.04549
-3.96264
-3.86584
-3.75575
-3.63151
-3.84565
-3.85544
-3.86884
-3.88313
-3.89709
-3.91098
-3.92515
-3.93986
-3.9553
-3.97156
-3.98862
-4.00644
-4.02495
-4.04411
-4.06389
-4.08428
-4.10522
-4.12658
-4.1481
-4.16947
-4.19039
-4.21059
-4.22986
-4.24801
-4.26483
-4.28002
-4.29326
-4.30424
-4.31271
-4.31841
-4.32102
-4.32013
-4.31531
-4.30612
-4.29206
-4.27252
-4.24673
-4.21391
-4.17327
-4.12399
-4.06519
-3.99595
-3.91531
-3.8227
-3.71905
-3.604
-3.88068
-3.89075
-3.90453
-3.91905
-3.93298
-3.94662
-3.96035
-3.97443
-3.98903
-4.00425
-4.02009
-4.0365
-4.05341
-4.07077
-4.08856
-4.10676
-4.12532
-4.14412
-4.16296
-4.18157
-4.19965
-4.21694
-4.23325
-4.24839
-4.26216
-4.27431
-4.28453
-4.29254
-4.29807
-4.30087
-4.30058
-4.29682
-4.28917
-4.27722
-4.26054
-4.23858
-4.21068
-4.17614
-4.13429
-4.08446
-4.02598
-3.95821
-3.88047
-3.7925
-3.69536
-3.58897
-3.91518
-3.92539
-3.93937
-3.95395
-3.96776
-3.98112
-3.99438
-4.00782
-4.0216
-4.0358
-4.05046
-4.06552
-4.08093
-4.09664
-4.11261
-4.12882
-4.14522
-4.16171
-4.17812
-4.19421
-4.20972
-4.22439
-4.23803
-4.25046
-4.26148
-4.27088
-4.27838
-4.28372
-4.28664
-4.28687
-4.28408
-4.27789
-4.26789
-4.25371
-4.23494
-4.21112
-4.18171
-4.14612
-4.10376
-4.05411
-3.99666
-3.93094
-3.85654
-3.77336
-3.68254
-3.58417
-3.94941
-3.95964
-3.97363
-3.98813
-4.00173
-4.01475
-4.02752
-4.0403
-4.05325
-4.06646
-4.07997
-4.09376
-4.10777
-4.12195
-4.13627
-4.15067
-4.16512
-4.17953
-4.19374
-4.20757
-4.22075
-4.23307
-4.24432
-4.25433
-4.26291
-4.26986
-4.27495
-4.27792
-4.27853
-4.27652
-4.27157
-4.26333
-4.25142
-4.23545
-4.21509
-4.18992
-4.15951
-4.12338
-4.08105
-4.0321
-3.97615
-3.91289
-3.84205
-3.76369
-3.67892
-3.58794
-3.98361
-3.99372
-4.00758
-4.02186
-4.03517
-4.04778
-4.06002
-4.07212
-4.08424
-4.09647
-4.10888
-4.12146
-4.13417
-4.14696
-4.15976
-4.17254
-4.18523
-4.19775
-4.20999
-4.22176
-4.23286
-4.24307
-4.2522
-4.26006
-4.26649
-4.27129
-4.27424
-4.27513
-4.27372
-4.26977
-4.26299
-4.25305
-4.23958
-4.22225
-4.20073
-4.17466
-4.1437
-4.10746
-4.06556
-4.01769
-3.96356
-3.90297
-3.83578
-3.76212
-3.68309
-3.59891
-4.01797
-4.02787
-4.04144
-4.05538
-4.06831
-4.08046
-4.09213
-4.10354
-4.11483
-4.12612
-4.13749
-4.14893
-4.16043
-4.17192
-4.18334
-4.19463
-4.20572
-4.21655
-4.22699
-4.23692
-4.24613
-4.25445
-4.26169
-4.26765
-4.27219
-4.27511
-4.27621
-4.27529
-4.27214
-4.26653
-4.2582
-4.24684
-4.23215
-4.2138
-4.19149
-4.16491
-4.13378
-4.0978
-4.05667
-4.01015
-3.95804
-3.90024
-3.83668
-3.76755
-3.69389
-3.61596
-4.05265
-4.06225
-4.07542
-4.08892
-4.10138
-4.11301
-4.12409
-4.13479
-4.14529
-4.15568
-4.16605
-4.17643
-4.18679
-4.19708
-4.20721
-4.21714
-4.22677
-4.23604
-4.24486
-4.25311
-4.26063
-4.26725
-4.2728
-4.2771
-4.27998
-4.28126
-4.28076
-4.27829
-4.27365
-4.26664
-4.25702
-4.24453
-4.22889
-4.2098
-4.187
-4.16023
-4.12923
-4.09379
-4.05369
-4.00873
-3.95879
-3.90382
-3.84382
-3.77901
-3.71037
-3.63815
-4.08775
-4.09699
-4.10964
-4.12261
-4.13454
-4.14563
-4.15609
-4.16611
-4.17584
-4.18538
-4.19482
-4.20418
-4.21346
-4.22261
-4.23155
-4.2402
-4.2485
-4.25635
-4.2637
-4.27042
-4.27641
-4.2815
-4.28555
-4.28839
-4.28983
-4.2897
-4.28783
-4.28403
-4.27813
-4.26996
-4.25929
-4.24591
-4.22956
-4.20999
-4.18695
-4.16022
-4.1296
-4.09491
-4.056
-4.01274
-3.96505
-3.91291
-3.85637
-3.79565
-3.73168
-3.6647
-4.12336
-4.13216
-4.14422
-4.15658
-4.16794
-4.17844
-4.1883
-4.19766
-4.20665
-4.21539
-4.22394
-4.23234
-4.2406
-4.24866
-4.25647
-4.26394
-4.271
-4.27757
-4.28357
-4.28893
-4.29353
-4.29726
-4.29997
-4.30151
-4.30171
-4.30037
-4.29734
-4.29243
-4.28549
-4.27636
-4.26485
-4.25078
-4.23394
-4.21409
-4.19103
-4.16454
-4.13448
-4.10071
-4.06312
-4.02162
-3.97618
-3.92682
-3.87359
-3.81674
-3.7571
-3.69493
-4.15949
-4.16781
-4.17922
-4.19091
-4.20165
-4.21157
-4.22083
-4.22955
-4.23785
-4.24582
-4.25353
-4.26102
-4.2683
-4.27533
-4.28207
-4.28844
-4.29437
-4.29977
-4.30458
-4.3087
-4.31207
-4.31457
-4.31609
-4.31649
-4.3156
-4.31324
-4.30923
-4.30341
-4.29562
-4.28573
-4.27357
-4.25899
-4.24182
-4.22186
-4.19894
-4.17287
-4.14352
-4.11077
-4.07458
-4.03487
-3.99166
-3.94498
-3.89491
-3.84167
-3.78606
-3.72829
-4.19617
-4.20398
-4.21468
-4.22566
-4.23577
-4.24509
-4.25377
-4.26188
-4.26953
-4.27677
-4.28369
-4.29031
-4.29666