/*--------------------------------*- C++ -*----------------------------------*\
  =========                 |
  \\      /  F ield         | OpenFOAM: The Open Source CFD Toolbox
   \\    /   O peration     | Website:  https://openfoam.org
    \\  /    A nd           | Version:  7
     \\/     M anipulation  |
\*---------------------------------------------------------------------------*/
FoamFile
{
    version     2.0;
    format      ascii;
    class       volScalarField;
    location    "0.25";
    object      p_rgh;
}
// * * * * * * * * * * * * * * * * * * * * * * * * * * * * * * * * * * * * * //

dimensions      [1 -1 -2 0 0 0 0];

internalField   nonuniform List<scalar> 
9072
(
1921
1924.34
1931.65
1940.06
1947.36
1953.38
1958.18
1962.06
1965.26
1967.98
1970.35
1972.46
1974.33
1975.96
1977.33
1978.42
1979.16
1979.53
1979.48
1979
1978.1
1976.82
1975.27
1973.59
1972.04
1970.95
1970.76
1972.05
1975.51
1982
1992.58
2008.49
2031.43
2062.76
2104.13
2157.27
2223.95
2305.19
2399.82
2502.25
2600.81
2679.03
2725.55
2726.32
2741.39
2817
1920.36
1922.62
1928.89
1936.16
1942.83
1948.5
1953.15
1956.97
1960.14
1962.83
1965.16
1967.2
1968.98
1970.49
1971.73
1972.65
1973.23
1973.42
1973.19
1972.54
1971.49
1970.09
1968.45
1966.75
1965.24
1964.26
1964.28
1965.86
1969.73
1976.75
1987.95
2004.53
2027.74
2059.41
2101.21
2154.87
2222.05
2303.86
2399.77
2505.54
2609.92
2693.59
2737.58
2730.72
2719.28
2805.96
1919.25
1921.77
1926.72
1932.71
1938.4
1943.38
1947.57
1951.06
1953.99
1956.46
1958.58
1960.39
1961.92
1963.16
1964.1
1964.71
1964.95
1964.81
1964.25
1963.29
1961.96
1960.34
1958.54
1956.75
1955.26
1954.41
1954.69
1956.67
1961.08
1968.79
1980.82
1998.34
2022.61
2055.29
2097.96
2152.26
2219.58
2300.79
2395.32
2499.54
2603.83
2690.58
2738.96
2743.02
2724.24
2807.02
1917.69
1920.82
1925.03
1929.98
1934.73
1938.93
1942.53
1945.56
1948.09
1950.23
1952.02
1953.5
1954.68
1955.56
1956.12
1956.33
1956.16
1955.6
1954.64
1953.3
1951.61
1949.68
1947.64
1945.7
1944.15
1943.36
1943.81
1946.11
1950.97
1959.27
1972.01
1990.34
2015.5
2048.98
2092.3
2146.95
2214.11
2294.3
2386.64
2487.54
2588.84
2676.73
2733.39
2753.17
2749.14
2824.06
1915.65
1919.48
1923.35
1927.59
1931.59
1935.11
1938.13
1940.67
1942.78
1944.53
1945.96
1947.08
1947.89
1948.38
1948.54
1948.33
1947.74
1946.75
1945.36
1943.6
1941.53
1939.24
1936.91
1934.74
1933.04
1932.19
1932.68
1935.12
1940.23
1948.88
1962.06
1980.89
2006.58
2040.51
2084.12
2138.74
2205.36
2284.25
2374.3
2472.12
2570.9
2660.27
2726.44
2764.11
2779.92
2859.47
1913.12
1917.58
1921.32
1925.11
1928.55
1931.51
1934.01
1936.1
1937.82
1939.2
1940.27
1941.03
1941.48
1941.6
1941.36
1940.75
1939.73
1938.31
1936.49
1934.31
1931.83
1929.17
1926.5
1924.03
1922.09
1921.07
1921.45
1923.86
1929.02
1937.77
1951.1
1970.1
1995.96
2029.96
2073.46
2127.67
2193.4
2270.74
2358.51
2453.64
2550.67
2642.03
2717.5
2772.31
2810.41
2902.9
1910.1
1915.09
1918.81
1922.31
1925.33
1927.83
1929.91
1931.62
1932.98
1934.02
1934.76
1935.19
1935.3
1935.06
1934.44
1933.44
1932.02
1930.18
1927.94
1925.33
1922.44
1919.38
1916.33
1913.51
1911.25
1909.95
1910.1
1912.32
1917.31
1925.94
1939.14
1958
1983.68
2017.39
2060.39
2113.8
2178.29
2253.83
2339.25
2431.9
2527.47
2620.64
2704.2
2774.25
2835.1
2944.83
1906.58
1912.01
1915.77
1919.07
1921.77
1923.93
1925.66
1927.04
1928.09
1928.84
1929.29
1929.41
1929.21
1928.63
1927.67
1926.29
1924.49
1922.25
1919.6
1916.57
1913.26
1909.78
1906.32
1903.1
1900.45
1898.78
1898.57
1900.44
1905.09
1913.36
1926.2
1944.64
1969.8
2002.86
2044.99
2097.21
2160.1
2233.56
2316.48
2406.61
2500.65
2594.97
2684.82
2767.58
2849.75
2977.32
1902.57
1908.35
1912.16
1915.33
1917.79
1919.68
1921.14
1922.25
1923.05
1923.55
1923.74
1923.6
1923.11
1922.23
1920.94
1919.22
1917.05
1914.43
1911.38
1907.94
1904.2
1900.29
1896.38
1892.72
1889.62
1887.48
1886.8
1888.18
1892.32
1900.04
1912.27
1930.02
1954.37
1986.44
2027.33
2078
2138.92
2209.95
2290.1
2377.46
2469.54
2563.95
2657.98
2750.46
2851.55
2996.08
1898.06
1904.12
1907.99
1911.06
1913.35
1915.02
1916.27
1917.18
1917.77
1918.06
1918.03
1917.66
1916.92
1915.77
1914.18
1912.14
1909.62
1906.63
1903.19
1899.34
1895.18
1890.82
1886.44
1882.29
1878.67
1875.99
1874.73
1875.5
1878.97
1885.96
1897.36
1914.17
1937.43
1968.19
2007.51
2056.24
2114.81
2183.04
2260
2344.12
2433.49
2526.57
2622.31
2721.02
2837.79
2998.17
1893.06
1899.34
1903.26
1906.25
1908.39
1909.91
1911
1911.75
1912.18
1912.31
1912.1
1911.53
1910.56
1909.16
1907.3
1904.96
1902.12
1898.77
1894.95
1890.7
1886.11
1881.29
1876.42
1871.73
1867.55
1864.25
1862.33
1862.35
1865.01
1871.1
1881.48
1897.11
1919.02
1948.19
1985.6
2032.04
2087.86
2152.84
2226.12
2306.33
2391.95
2481.93
2576.55
2677.21
2805.66
2976.16
1887.57
1894.01
1897.95
1900.89
1902.92
1904.31
1905.29
1905.92
1906.24
1906.23
1905.88
1905.14
1903.98
1902.36
1900.25
1897.63
1894.48
1890.8
1886.61
1881.96
1876.93
1871.63
1866.25
1861
1856.2
1852.22
1849.54
1848.72
1850.44
1855.45
1864.63
1878.89
1899.19
1926.49
1961.68
2005.48
2058.14
2119.41
2188.44
2263.93
2344.54
2429.37
2519.57
2616.85
2751.93
2924.74
1881.59
1888.16
1892.09
1894.97
1896.91
1898.22
1899.11
1899.67
1899.9
1899.8
1899.33
1898.45
1897.12
1895.3
1892.97
1890.08
1886.64
1882.64
1878.09
1873.05
1867.58
1861.8
1855.89
1850.05
1844.58
1839.85
1836.33
1834.57
1835.22
1839.03
1846.83
1859.51
1878
1903.17
1935.85
1976.66
2025.78
2082.86
2147.01
2216.9
2291.12
2368.52
2450.51
2537.66
2672.71
2834.47
1875.15
1881.79
1885.69
1888.5
1890.37
1891.62
1892.46
1892.97
1893.14
1892.97
1892.41
1891.41
1889.94
1887.95
1885.4
1882.27
1878.55
1874.24
1869.34
1863.91
1858
1851.74
1845.27
1838.8
1832.62
1827.1
1822.66
1819.86
1819.33
1821.8
1828.07
1839
1855.47
1878.28
1908.19
1945.7
1990.91
2043.34
2102
2165.41
2231.82
2299.38
2368.9
2437.57
2563.55
2687.48
1868.23
1874.92
1878.75
1881.48
1883.31
1884.51
1885.33
1885.82
1885.97
1885.75
1885.12
1884.02
1882.42
1880.27
1877.53
1874.17
1870.19
1865.57
1860.33
1854.51
1848.17
1841.41
1834.37
1827.25
1820.33
1813.94
1808.53
1804.61
1802.8
1803.81
1808.41
1817.42
1831.67
1851.93
1878.81
1912.76
1953.71
2001.09
2053.71
2109.79
2167.02
2222.34
2274.6
2315.11
2418.19
2451.63
1860.87
1867.51
1871.26
1873.91
1875.71
1876.92
1877.75
1878.25
1878.4
1878.16
1877.49
1876.32
1874.61
1872.32
1869.41
1865.85
1861.63
1856.73
1851.17
1844.98
1838.21
1830.95
1823.34
1815.56
1807.87
1800.59
1794.13
1789.02
1785.83
1785.26
1788.05
1794.99
1806.85
1824.32
1847.94
1878.02
1914.37
1956.24
2002.23
2050.13
2096.8
2137.44
2167.05
2169.94
2218.72
2087.25
2.28734
2.28279
2.27973
2.27772
2.27735
2.27822
2.27958
2.28077
2.28118
2.28038
2.27814
2.27433
2.26897
2.26217
2.25406
2.24486
2.23478
2.22406
2.21289
2.20148
2.18998
2.17855
2.16733
2.15644
2.14597
2.13602
2.12663
2.11789
2.10984
2.10253
2.09602
2.09034
2.08551
2.08156
2.07847
2.07625
2.07479
2.07408
2.2879
2.28389
2.28089
2.27841
2.2775
2.27782
2.27886
2.27978
2.28003
2.27914
2.27687
2.27309
2.2678
2.26108
2.25308
2.24399
2.23401
2.22339
2.21232
2.201
2.1896
2.17824
2.16709
2.15627
2.14587
2.13598
2.12664
2.11794
2.10993
2.10265
2.09616
2.09047
2.08564
2.08166
2.07853
2.07623
2.07465
2.07372
2.28843
2.28433
2.28134
2.27876
2.2776
2.27771
2.27841
2.2791
2.27919
2.27821
2.27591
2.27213
2.26687
2.2602
2.25227
2.24325
2.23335
2.2228
2.2118
2.20054
2.1892
2.1779
2.1668
2.15602
2.14567
2.13583
2.12654
2.11787
2.10988
2.10262
2.09612
2.09043
2.08556
2.08155
2.07836
2.076
2.07436
2.07347
2.28882
2.28425
2.28112
2.27864
2.27745
2.27744
2.27805
2.27864
2.27864
2.2776
2.27525
2.27145
2.26618
2.25954
2.25163
2.24265
2.23279
2.22226
2.21129
2.20007
2.18877
2.1775
2.16643
2.15567
2.14535
2.13555
2.12629
2.11765
2.10968
2.10241
2.09591
2.09018
2.08527
2.08121
2.07797
2.07555
2.07387
2.07306
2.28892
2.28374
2.28036
2.27809
2.27704
2.27713
2.2778
2.2784
2.27839
2.27732
2.27492
2.27108
2.26578
2.25911
2.25119
2.24221
2.23234
2.2218
2.21081
2.19958
2.1883
2.17705
2.16598
2.15522
2.14492
2.13513
2.1259
2.11727
2.10931
2.10204
2.09551
2.08974
2.08477
2.08064
2.07736
2.0749
2.0732
2.07246
2.28857
2.28275
2.27908
2.27711
2.27637
2.27676
2.27764
2.27838
2.27843
2.27737
2.27494
2.27104
2.26568
2.25894
2.25097
2.24193
2.23202
2.22142
2.21037
2.19911
2.18781
2.17656
2.16548
2.1547
2.14438
2.13458
2.12535
2.11673
2.10876
2.10148
2.09491
2.08909
2.08406
2.07987
2.07654
2.07407
2.07238
2.0717
2.28761
2.2812
2.27722
2.2757
2.27545
2.27632
2.27757
2.27857
2.27875
2.27774
2.27529
2.27132
2.26586
2.25901
2.25094
2.24182
2.23182
2.22113
2.20999
2.19865
2.18732
2.17605
2.16493
2.15411
2.14374
2.13391
2.12465
2.11601
2.10802
2.10071
2.09411
2.08823
2.08314
2.07891
2.07554
2.07306
2.07141
2.07079
2.28588
2.27896
2.2747
2.27382
2.27424
2.27579
2.27758
2.27895
2.27936
2.27843
2.27597
2.27191
2.26632
2.25931
2.25109
2.24184
2.23173
2.22093
2.20967
2.19823
2.18683
2.17552
2.16435
2.15346
2.143
2.1331
2.12379
2.1151
2.10708
2.09973
2.09309
2.08716
2.08203
2.07775
2.07437
2.07189
2.07029
2.06972
2.28315
2.27591
2.27138
2.27142
2.27273
2.27516
2.27766
2.27954
2.28024
2.27943
2.27697
2.27281
2.26706
2.25985
2.25142
2.24199
2.23174
2.22082
2.20942
2.19784
2.18633
2.17494
2.1637
2.15272
2.14217
2.13217
2.12277
2.114
2.10592
2.09853
2.09184
2.08589
2.08072
2.07642
2.07303
2.07055
2.069
2.06849
2.27902
2.27181
2.26705
2.26839
2.27086
2.27444
2.27783
2.28034
2.28141
2.28076
2.2783
2.27403
2.26808
2.26063
2.25194
2.24228
2.23185
2.22077
2.20921
2.19746
2.18581
2.17431
2.16297
2.15189
2.14123
2.13111
2.12159
2.11272
2.10455
2.0971
2.09038
2.08441
2.07923
2.07492
2.07152
2.06906
2.06756
2.0671
2.27285
2.26635
2.26145
2.26461
2.26861
2.27361
2.27811
2.28139
2.28291
2.28245
2.27998
2.27558
2.2694
2.26167
2.25267
2.24272
2.23206
2.2208
2.20904
2.19709
2.18524
2.17359
2.16213
2.15094
2.14015
2.12989
2.12024
2.11124
2.10296
2.09544
2.08869
2.08271
2.07754
2.07324
2.06984
2.0674
2.06595
2.06554
2.26353
2.25903
2.25419
2.25994
2.26591
2.27267
2.2785
2.28271
2.28477
2.28453
2.28204
2.27749
2.27105
2.26301
2.25365
2.24335
2.2324
2.22089
2.2089
2.1967
2.18461
2.17277
2.16116
2.14983
2.13891
2.12851
2.11871
2.10957
2.10117
2.09358
2.08679
2.08082
2.07567
2.07138
2.068
2.06558
2.06418
2.06381
2.24909
2.24925
2.24482
2.25417
2.26274
2.27163
2.27905
2.28434
2.28702
2.28704
2.28454
2.27978
2.27306
2.26466
2.25491
2.24419
2.23286
2.22105
2.20877
2.19629
2.18392
2.17183
2.16002
2.14854
2.13748
2.12694
2.11699
2.1077
2.09919
2.09151
2.08469
2.07872
2.0736
2.06934
2.06598
2.06359
2.06224
2.06191
2.22606
2.23633
2.23285
2.24712
2.25906
2.27053
2.2798
2.28633
2.28972
2.29002
2.28748
2.2825
2.27543
2.26664
2.25643
2.24524
2.23347
2.22127
2.20866
2.19585
2.18316
2.17077
2.15873
2.14706
2.13584
2.12516
2.11507
2.10564
2.09701
2.08925
2.08239
2.07643
2.07133
2.0671
2.06377
2.06141
2.06012
2.05984
2.1874
2.21766
2.21762
2.23851
2.25487
2.26942
2.28081
2.28871
2.29288
2.29348
2.2909
2.28563
2.27816
2.26891
2.25819
2.24647
2.23419
2.22154
2.20854
2.19537
2.18233
2.16961
2.15729
2.14539
2.13399
2.12316
2.11293
2.10339
2.09465
2.08681
2.07992
2.07395
2.06887
2.06467
2.06137
2.05905
2.05782
2.0576
2.12085
2.18134
2.19802
2.22785
2.25006
2.26829
2.28212
2.29153
2.29652
2.29742
2.29476
2.28916
2.28123
2.27144
2.26016
2.24787
2.23503
2.22186
2.20842
2.19487
2.18146
2.1684
2.15576
2.1436
2.132
2.12101
2.11066
2.10102
2.09218
2.08427
2.07732
2.07133
2.06626
2.06207
2.0588
2.05653
2.05535
2.05519
1848.7
1855.06
1858.78
1861.29
1863.08
1864.34
1865.23
1865.79
1865.98
1865.76
1865.06
1863.83
1862
1859.54
1856.41
1852.58
1848.02
1842.73
1836.71
1829.98
1822.57
1814.56
1806.07
1797.24
1788.31
1779.58
1771.43
1764.34
1758.87
1755.67
1755.44
1758.89
1766.71
1779.5
1797.62
1821.15
1849.69
1882.2
1916.88
1950.79
1979.22
1994.25
1982.82
1917.92
1778.45
1216.32
1830.29
1836.3
1839.8
1842.21
1844.03
1845.4
1846.43
1847.13
1847.45
1847.3
1846.62
1845.35
1843.42
1840.8
1837.43
1833.28
1828.33
1822.56
1815.96
1808.53
1800.29
1791.26
1781.54
1771.24
1760.53
1749.69
1739.04
1729.03
1720.17
1713.05
1708.32
1706.59
1708.44
1714.27
1724.23
1738.11
1755.22
1774.23
1792.91
1807.73
1812.93
1799.03
1750.02
1636.36
1431.23
1136.38
1810.19
1815.74
1818.9
1821.2
1823.07
1824.59
1825.8
1826.68
1827.14
1827.09
1826.46
1825.17
1823.16
1820.39
1816.81
1812.38
1807.07
1800.86
1793.71
1785.6
1776.53
1766.5
1755.53
1743.7
1731.14
1718.06
1704.73
1691.57
1679.05
1667.71
1658.12
1650.85
1646.33
1644.8
1646.23
1650.19
1655.84
1661.75
1665.72
1664.35
1652.49
1622.46
1563.65
1462.6
1310.53
1168.28
1788.63
1793.6
1796.38
1798.57
1800.49
1802.16
1803.55
1804.6
1805.2
1805.25
1804.67
1803.36
1801.28
1798.38
1794.59
1789.9
1784.25
1777.62
1769.94
1761.2
1751.33
1740.31
1728.1
1714.74
1700.28
1684.86
1668.73
1652.24
1635.83
1620.02
1605.34
1592.28
1581.18
1572.16
1565.02
1559.23
1553.91
1547.77
1538.94
1524.7
1501.25
1463.44
1405.23
1321.13
1204.33
1081.16
1765.79
1770.09
1772.49
1774.56
1776.53
1778.33
1779.89
1781.1
1781.82
1781.96
1781.4
1780.07
1777.92
1774.87
1770.9
1765.95
1759.97
1752.93
1744.77
1735.42
1724.8
1712.83
1699.44
1684.57
1668.21
1650.42
1631.4
1611.46
1591.02
1570.58
1550.67
1531.73
1514.05
1497.67
1482.3
1467.36
1452.04
1435.34
1415.88
1391.79
1360.75
1319.64
1264.79
1193.14
1101.08
1001.52
1741.91
1745.45
1747.49
1749.43
1751.41
1753.32
1755.01
1756.34
1757.16
1757.36
1756.82
1755.46
1753.21
1750.02
1745.85
1740.64
1734.35
1726.93
1718.3
1708.38
1697.06
1684.22
1669.72
1653.42
1635.22
1615.09
1593.15
1569.69
1545.12
1519.99
1494.82
1470.1
1446.08
1422.78
1399.9
1376.91
1353.05
1327.72
1300.01
1268.84
1233.55
1192.92
1145.02
1088.45
1022.56
955.192
1717.24
1719.94
1721.62
1723.38
1725.33
1727.29
1729.07
1730.5
1731.4
1731.63
1731.09
1729.68
1727.33
1723.99
1719.6
1714.13
1707.52
1699.72
1690.65
1680.21
1668.27
1654.66
1639.18
1621.59
1601.68
1579.3
1554.48
1527.49
1498.79
1468.97
1438.68
1408.46
1378.62
1349.25
1320.05
1290.58
1260.1
1228.49
1194.95
1158.7
1121.59
1084.49
1046.57
1007.23
965.84
925.21
1692.05
1693.8
1695.1
1696.59
1698.44
1700.41
1702.25
1703.75
1704.7
1704.97
1704.41
1702.94
1700.47
1696.96
1692.35
1686.59
1679.65
1671.47
1661.97
1651.05
1638.56
1624.31
1608.04
1589.39
1568
1543.55
1515.97
1485.52
1452.75
1418.4
1383.27
1348.07
1313.18
1278.88
1244.93
1210.73
1174.92
1139.46
1104.13
1066.28
1031.47
1002.38
977.126
954.179
931.498
910.123
1666.62
1667.21
1668.08
1669.15
1670.85
1672.81
1674.7
1676.26
1677.28
1677.56
1676.99
1675.45
1672.86
1669.15
1664.28
1658.22
1650.92
1642.33
1632.4
1621.04
1608.09
1593.34
1576.51
1557.15
1534.66
1508.47
1478.36
1444.61
1407.93
1369.24
1329.5
1289.76
1250.42
1212.16
1174.79
1137.32
1094.91
1037.35
900.051
705.264
617.153
592.496
624.607
718.76
879.143
937.917
1641.16
1640.19
1640.55
1641.13
1642.66
1644.63
1646.59
1648.23
1649.32
1649.64
1649.06
1647.44
1644.69
1640.77
1635.61
1629.19
1621.48
1612.46
1602.07
1590.26
1576.91
1561.83
1544.77
1525.2
1502.2
1474.81
1442.55
1405.7
1365.16
1321.93
1277.35
1233.54
1191.3
1142.24
1041.64
834.724
384.074
142.009
82.4922
35.4883
16.6475
12.2079
19.4349
52.2746
155.611
462.15
1615.46
1612.45
1612.45
1612.57
1614
1616.03
1618.1
1619.87
1621.05
1621.43
1620.83
1619.12
1616.2
1612.02
1606.52
1599.68
1591.5
1581.98
1571.1
1558.84
1545.14
1529.88
1512.98
1493.94
1471.33
1443.54
1409.56
1369.54
1324.77
1276.95
1229.49
1180.27
1005.38
621.268
94.7416
-3.81604
-3.9924
-4.09381
-4.30446
-4.63765
-4.99001
-5.30684
-5.63303
-5.97879
-6.19583
-2.04325
1588.85
1583.8
1584.1
1583.68
1585.1
1587.28
1589.53
1591.46
1592.76
1593.2
1592.6
1590.79
1587.67
1583.18
1577.29
1569.99
1561.27
1551.19
1539.76
1527.04
1512.97
1497.56
1481.14
1463.62
1442.73
1415.62
1380.32
1337.16
1289.95
1243.61
1040.57
593.095
31.6505
-3.66567
-4.06676
-4.18221
-4.24824
-4.34515
-4.49316
-4.68122
-4.8871
-5.0843
-5.26149
-5.42636
-5.56874
-5.65882
1561.91
1556.07
1554.64
1554.71
1556.43
1558.87
1561.37
1563.49
1564.92
1565.43
1564.81
1562.88
1559.53
1554.68
1548.33
1540.46
1531.08
1520.23
1507.99
1494.44
1479.48
1463.19
1447.28
1433.13
1416.66
1392.55
1357.93
1315.7
1209.09
764.004
109.354
-3.53005
-3.77964
-3.89661
-4.03017
-4.16126
-4.26866
-4.4026
-4.56442
-4.75199
-4.95894
-5.17197
-5.37879
-5.57097
-5.73794
-5.85388
1535.97
1528.12
1526.25
1526.62
1528.4
1530.95
1533.56
1535.78
1537.29
1537.83
1537.16
1535.06
1531.32
1525.92
1518.84
1510.05
1499.51
1487.31
1473.6
1458.52
1441.62
1423.17
1408.48
1402.34
1396.42
1381.14
1351.91
1038.03
343.458
-3.03073
-3.56027
-3.62191
-3.73958
-3.88783
-4.02178
-4.16054
-4.29726
-4.44569
-4.61299
-4.79972
-5.00143
-5.2119
-5.42671
-5.6416
-5.84841
-6.03745
1510.53
1503.63
1499.8
1499.25
1500.56
1502.86
1505.09
1507.04
1508.34
1508.72
1507.89
1505.44
1501.02
1494.7
1486.56
1476.67
1465.11
1452.26
1438.61
1424.54
1409
1366.48
1253.26
1233.61
1257.03
1206.33
757.118
89.6724
-3.25653
-3.30381
-3.43325
-3.59351
-3.73126
-3.87746
-4.02302
-4.16918
-4.31614
-4.46997
-4.63652
-4.8171
-5.00979
-5.21223
-5.42304
-5.64077
-5.86189
-6.0824
1474.52
1360.47
1217.9
1250.38
1322.38
1386.74
1432.89
1460.93
1475.71
1481.75
1482.69
1480.83
1476
1468.7
1456.84
1436.42
1399.29
1335.18
1233.66
1095.17
910.526
576.381
278.365
251.724
278.115
192.623
-2.61786
-3.05545
-3.18281
-3.30131
-3.42559
-3.57423
-3.71891
-3.86491
-4.01187
-4.15913
-4.30791
-4.46214
-4.62577
-4.80077
-4.98746
-5.186
-5.39702
-5.62086
-5.85519
-6.09215
652.564
351.481
169.283
196.359
278.152
385.005
504.398
623.948
732.597
821.448
881.878
910.462
890.593
837.179
753.193
638.829
500.703
352.394
211.672
98.0956
8.74447
-2.45765
-2.44076
-2.33264
-2.2432
-2.69447
-2.79541
-2.92658
-3.10597
-3.25588
-3.39838
-3.54483
-3.68994
-3.83428
-3.97848
-4.12311
-4.26973
-4.4212
-4.58067
-4.75055
-4.93275
-5.12936
-5.34314
-5.57682
-5.8297
-6.0913
-1.71274
-0.778478
-0.931747
-1.02007
-1.04464
-1.12419
-1.21779
-1.31219
-1.45512
-1.55893
-1.22906
5.03406
-0.200209
-1.69054
-1.76711
-1.78417
-1.83585
-1.91938
-2.01357
-2.09986
-2.0818
-2.07122
-2.12843
-2.22601
-2.35971
-2.56588
-2.75308
-2.89989
-3.06257
-3.21345
-3.35845
-3.50186
-3.64322
-3.78313
-3.92246
-4.06229
-4.2043
-4.35098
-4.5052
-4.66991
-4.84817
-5.04375
-5.26159
-5.50729
-5.78311
-6.07976
-1.21443
-1.18019
-1.15285
-1.1199
-1.09629
-1.09237
-1.10118
-1.11812
-1.14485
-1.18083
-1.21136
-1.25937
-1.29505
-1.31863
-1.35608
-1.41615
-1.48618
-1.572
-1.67584
-1.80247
-1.95677
-2.08165
-2.18217
-2.28987
-2.41752
-2.568
-2.72587
-2.87459
-3.0236
-3.16744
-3.30728
-3.44468
-3.57988
-3.71351
-3.84646
-3.97996
-4.11578
-4.25637
-4.40469
-4.56421
-4.73902
-4.93434
-5.15723
-5.41619
-5.71647
-6.04923
-1.19083
-1.13754
-1.12589
-1.11563
-1.11384
-1.12308
-1.14191
-1.16738
-1.19776
-1.23139
-1.26278
-1.29276
-1.34362
-1.39344
-1.44599
-1.5099
-1.58336
-1.66807
-1.76468
-1.87322
-1.99258
-2.10527
-2.20736
-2.31246
-2.43007
-2.56342
-2.70241
-2.84093
-2.97842
-3.11311
-3.245
-3.37462
-3.50223
-3.62834
-3.7538
-3.87991
-4.00856
-4.14232
-4.28438
-4.43871
-4.61024
-4.80542
-5.03298
-5.30384
-5.6258
-5.98974
-1.15908
-1.13392
-1.12818
-1.12305
-1.12681
-1.14017
-1.1621
-1.19087
-1.22474
-1.26179
-1.30018
-1.34079
-1.38963
-1.44157
-1.49765
-1.56056
-1.63164
-1.71199
-1.80155
-1.89899
-2.00161
-2.10449
-2.20629
-2.31117
-2.42392
-2.54596
-2.6721
-2.79905
-2.92545
-3.05016
-3.17288
-3.29369
-3.41277
-3.53049
-3.64766
-3.76564
-3.88647
-4.01287
-4.14826
-4.297
-4.46457
-4.65817
-4.88748
-5.16479
-5.50057
-5.88935
-1.16075
-1.1387
-1.13536
-1.13401
-1.13965
-1.15339
-1.17471
-1.2026
-1.23587
-1.27328
-1.31395
-1.35808
-1.40681
-1.45931
-1.51629
-1.57919
-1.64911
-1.72668
-1.81169
-1.90306
-1.99889
-2.09692
-2.19625
-2.29851
-2.40561
-2.51796
-2.63312
-2.74914
-2.86481
-2.97931
-3.09233
-3.20378
-3.31373
-3.42247
-3.53079
-3.64013
-3.7526
-3.87102
-3.9989
-4.14075
-4.30227
-4.49081
-4.71609
-4.99054
-5.32394
-5.73034
-1.167
-1.14954
-1.14634
-1.14688
-1.15369
-1.16763
-1.18831
-1.21509
-1.24718
-1.28378
-1.32432
-1.36876
-1.41739
-1.47014
-1.52748
-1.5902
-1.65896
-1.734
-1.81505
-1.90126
-1.99147
-2.08436
-2.17914
-2.27645
-2.37697
-2.48047
-2.58573
-2.69152
-2.79694
-2.9014
-3.00464
-3.10652
-3.20704
-3.30646
-3.40558
-3.50586
-3.60941
-3.71895
-3.83791
-3.97065
-4.12272
-4.30113
-4.51503
-4.77713
-5.10092
-5.4851
-1.17265
-1.16077
-1.15869
-1.16072
-1.16846
-1.18258
-1.20279
-1.22866
-1.25963
-1.29516
-1.33485
-1.37858
-1.42645
-1.47855
-1.53519
-1.59677
-1.6636
-1.73567
-1.81264
-1.89385
-1.97847
-2.06566
-2.15489
-2.24602
-2.33951
-2.43463
-2.53071
-2.62691
-2.72258
-2.81734
-2.91098
-3.00336
-3.09441
-3.18437
-3.27405
-3.36486
-3.45877
-3.55825
-3.66638
-3.78712
-3.92548
-4.08765
-4.28165
-4.51927
-4.81383
-5.16299
-1.17783
-1.17127
-1.17066
-1.17408
-1.18259
-1.19678
-1.21651
-1.24148
-1.2713
-1.30558
-1.34404
-1.38653
-1.43307
-1.48375
-1.53878
-1.59835
-1.66254
-1.73121
-1.80397
-1.88022
-1.95931
-2.04065
-2.12381
-2.20854
-2.29468
-2.38176
-2.46917
-2.55628
-2.64267
-2.72812
-2.81248
-2.89556
-2.97725
-3.05777
-3.13786
-3.21879
-3.30226
-3.39032
-3.48554
-3.59119
-3.71138
-3.8512
-4.0167
-4.21818
-4.46798
-4.76952
-1.18198
-1.18024
-1.18101
-1.18566
-1.19483
-1.20901
-1.22821
-1.25223
-1.2808
-1.31366
-1.35057
-1.39142
-1.4362
-1.48495
-1.5378
-1.59481
-1.65594
-1.72094
-1.78938
-1.8607
-1.93434
-2.0098
-2.08674
-2.16485
-2.24381
-2.32312
-2.40224
-2.48071
-2.55828
-2.63484
-2.71024
-2.78428
-2.8568
-2.92795
-2.99835
-3.06906
-3.14136
-3.21678
-3.29722
-3.38505
-3.48304
-3.59439
-3.72408
-3.87758
-4.06518
-4.29486
-1.18478
-1.18681
-1.18878
-1.19454
-1.20425
-1.21839
-1.23706
-1.26012
-1.28739
-1.31871
-1.3539
-1.39285
-1.43554
-1.482
-1.53229
-1.5864
-1.6442
-1.70536
-1.76942
-1.83583
-1.90407
-1.97372
-2.04448
-2.11603
-2.18797
-2.25981
-2.33105
-2.40134
-2.47055
-2.53861
-2.6054
-2.67067
-2.73421
-2.79611
-2.85683
-2.9171
-2.97773
-3.03967
-3.10407
-3.17226
-3.24561
-3.32529
-3.41255
-3.50975
-3.61879
-3.7385
-1.18558
-1.19039
-1.19333
-1.20009
-1.21028
-1.22438
-1.24251
-1.26463
-1.29062
-1.32035
-1.35372
-1.39063
-1.43104
-1.47497
-1.52245
-1.57343
-1.62771
-1.68492
-1.74457
-1.8061
-1.86903
-1.93301
-1.99773
-2.06289
-2.12807
-2.19279
-2.25659
-2.31918
-2.38049
-2.44049
-2.49904
-2.55585
-2.61066
-2.66347
-2.71457
-2.76435
-2.81316
-2.86132
-2.90925
-2.95729
-3.00543
-3.05295
-3.09818
-3.13853
-3.16925
-3.17787
-1.18372
-1.19047
-1.19428
-1.20193
-1.21258
-1.22664
-1.24428
-1.26549
-1.29021
-1.31838
-1.34989
-1.38467
-1.42268
-1.46394
-1.50846
-1.55616
-1.60681
-1.66001
-1.71525
-1.77198
-1.82975
-1.88822
-1.94712
-2.00616
-2.06491
-2.1229
-2.17969
-2.23507
-2.28897
-2.34139
-2.39213
-2.44086
-2.48725
-2.53123
-2.57291
-2.61236
-2.64949
-2.68412
-2.71599
-2.74462
-2.76889
-2.78664
-2.79421
-2.78631
-2.75498
-2.68284
-1.17881
-1.18665
-1.19139
-1.19987
-1.21097
-1.22503
-1.24222
-1.26257
-1.28608
-1.3127
-1.34235
-1.37497
-1.41053
-1.44905
-1.49053
-1.53487
-1.58184
-1.63102
-1.68191
-1.73396
-1.78675
-1.83994
-1.89328
-1.94649
-1.99915
-2.0508
-2.10105
-2.14969
-2.1967
-2.24202
-2.28542
-2.32652
-2.36493
-2.40047
-2.4331
-2.46261
-2.48858
-2.51039
-2.52731
-2.53823
-2.5413
-2.53352
-2.51028
-2.46532
-2.3903
-2.2681
-1.17068
-1.17873
-1.18454
-1.19388
-1.20546
-1.21955
-1.23633
-1.25588
-1.27823
-1.30335
-1.33117
-1.36164
-1.39475
-1.43052
-1.46893
-1.50989
-1.55318
-1.59839
-1.64502
-1.69256
-1.74056
-1.78872
-1.83678
-1.88447
-1.93139
-1.97712
-2.02126
-2.06364
-2.10422
-2.14294
-2.1795
-2.21347
-2.2444
-2.27203
-2.29616
-2.31638
-2.33202
-2.34216
-2.34573
-2.34124
-2.32648
-2.29815
-2.2515
-2.18049
-2.07806
-1.92991
-1.15912
-1.16659
-1.17399
-1.18413
-1.1962
-1.21035
-1.22677
-1.24557
-1.26681
-1.29048
-1.31651
-1.34489
-1.37559
-1.40863
-1.444
-1.48163
-1.52128
-1.56261
-1.60511
-1.64829
-1.69173
-1.73509
-1.77816
-1.82065
-1.86221
-1.90241
-1.9409
-1.97748
-2.01211
-2.04469
-2.07491
-2.10227
-2.12629
-2.14661
-2.1629
-2.17464
-2.18099
-2.18087
-2.173
-2.15572
-2.12672
-2.08278
-2.01953
-1.93182
-1.81448
-1.65682
-1.14381
-1.15093
-1.15986
-1.17091
-1.18346
-1.19768
-1.21376
-1.23186
-1.25204
-1.2743
-1.29862
-1.32497
-1.35334
-1.38373
-1.41614
-1.4505
-1.48662
-1.52416
-1.56268
-1.60168
-1.64075
-1.67959
-1.71795
-1.75559
-1.79216
-1.82726
-1.86053
-1.89177
-1.92091
-1.94782
-1.97218
-1.99348
-2.01119
-2.02487
-2.0341
-2.03827
-2.03646
-2.02755
-2.0102
-1.98272
-1.9429
-1.88782
-1.81375
-1.7166
-1.59307
-1.43579
-1.12498
-1.13252
-1.14265
-1.15457
-1.16756
-1.18182
-1.19757
-1.21498
-1.23414
-1.25506
-1.27775
-1.30218
-1.32831
-1.35616
-1.38571
-1.41692
-1.44963
-1.48353
-1.51822
-1.55324
-1.58818
-1.62274
-1.6567
-1.68982
-1.72178
-1.75219
-1.78069
-1.80704
-1.83115
-1.85287
-1.87187
-1.88765
-1.89966
-1.90743
-1.91044
-1.90802
-1.89924
-1.883
-1.858
-1.82268
-1.77502
-1.71252
-1.63215
-1.53085
-1.40687
-1.25541
-1.10339
-1.11155
-1.12272
-1.13543
-1.14882
-1.16308
-1.17848
-1.1952
-1.21337
-1.23302
-1.25417
-1.27678
-1.3008
-1.32624
-1.35309
-1.3813
-1.41075
-1.44119
-1.47224
-1.50348
-1.53453
-1.56509
-1.59495
-1.62388
-1.65159
-1.6777
-1.70184
-1.72376
-1.7433
-1.7603
-1.77443
-1.78524
-1.79217
-1.79473
-1.79237
-1.78436
-1.7698
-1.74763
-1.71669
-1.67556
-1.62252
-1.55551
-1.47218
-1.37033
-1.24937
-1.10635
-1.07959
-1.08839
-1.10047
-1.11386
-1.12754
-1.14175
-1.15676
-1.1728
-1.19001
-1.20847
-1.22817
-1.24907
-1.27113
-1.29432
-1.31862
-1.34402
-1.37042
-1.39759
-1.42523
-1.45293
-1.48034
-1.50717
-1.53321
-1.55827
-1.58205
-1.60421
-1.62438
-1.64228
-1.65771
-1.67048
-1.68027
-1.68663
-1.68907
-1.6871
-1.68015
-1.66749
-1.64825
-1.62146
-1.58608
-1.5409
-1.48448
-1.4152
-1.33126
-1.23119
-1.11516
-0.981484
-1.0541
-1.06346
-1.07629
-1.09021
-1.10409
-1.11817
-1.13277
-1.14813
-1.16444
-1.18176
-1.20011
-1.21942
-1.23965
-1.26074
-1.28269
-1.30548
-1.32904
-1.35318
-1.37763
-1.40204
-1.42607
-1.44945
-1.47197
-1.49343
-1.51359
-1.53211
-1.54866
-1.56293
-1.57468
-1.58369
-1.58965
-1.59212
-1.59065
-1.58477
-1.57393
-1.55746
-1.53452
-1.50424
-1.4657
-1.41789
-1.35969
-1.28982
-1.20697
-1.11017
-1.00008
-0.875843
-1.02738
-1.03717
-1.05057
-1.06487
-1.07882
-1.09271
-1.10688
-1.12159
-1.13704
-1.15329
-1.17035
-1.18817
-1.20669
-1.22584
-1.24562
-1.26601
-1.28696
-1.30831
-1.32983
-1.35121
-1.37213
-1.39232
-1.41159
-1.42975
-1.44656
-1.46175
-1.47499
-1.48597
-1.49444
-1.50014
-1.50275
-1.50186
-1.49704
-1.48785
-1.4738
-1.45425
-1.42846
-1.39564
-1.355
-1.30572
-1.24693
-1.17768
-1.09704
-1.00443
-0.900786
-0.785729
-0.999816
-1.00989
-1.02367
-1.03818
-1.05211
-1.06576
-1.07949
-1.09356
-1.10817
-1.12339
-1.13923
-1.15563
-1.17255
-1.18991
-1.2077
-1.22589
-1.24445
-1.26326
-1.2821
-1.3007
-1.31878
-1.33608
-1.35239
-1.36753
-1.3813
-1.39344
-1.40366
-1.41167
-1.41721
-1.42
-1.41971
-1.41595
-1.4083
-1.39636
-1.37968
-1.35771
-1.32981
-1.29527
-1.25342
-1.20359
-1.14512
-1.07734
-0.999609
-0.911635
-0.814495
-0.708108
-0.971717
-0.981933
-0.99591
-1.01048
-1.0243
-1.03765
-1.05092
-1.06436
-1.07813
-1.09234
-1.107
-1.12206
-1.13747
-1.15318
-1.16915
-1.18535
-1.20175
-1.21825
-1.23466
-1.25075
-1.26626
-1.28093
-1.29457
-1.30699
-1.31802
-1.32742
-1.33492
-1.34026
-1.34318
-1.34341
-1.34062
-1.33443
-1.32443
-1.31024
-1.29148
-1.26766
-1.23825
-1.20266
-1.1603
-1.11065
-1.0532
-0.98748
-0.913075
-0.829898
-0.73908
-0.640713
-0.943352
-0.953577
-0.967573
-0.982067
-0.995675
-1.00869
-1.02146
-1.03424
-1.04719
-1.0604
-1.07391
-1.0877
-1.10171
-1.11589
-1.13021
-1.14461
-1.15906
-1.17347
-1.18769
-1.20151
-1.21469
-1.22701
-1.23826
-1.24827
-1.25685
-1.2638
-1.26889
-1.27186
-1.27247
-1.27046
-1.26551
-1.25728
-1.24536
-1.22939
-1.20903
-1.18386
-1.15345
-1.11732
-1.07499
-1.02604
-0.970093
-0.906831
-0.835994
-0.757627
-0.67286
-0.581883
-0.914951
-0.925066
-0.938921
-0.953201
-0.966512
-0.979126
-0.991368
-1.00347
-1.01558
-1.02782
-1.04023
-1.05281
-1.06552
-1.0783
-1.09111
-1.10388
-1.11657
-1.1291
-1.14133
-1.15311
-1.16421
-1.17442
-1.18354
-1.1914
-1.19783
-1.20263
-1.20559
-1.20647
-1.20507
-1.20112
-1.19433
-1.18439
-1.17092
-1.1536
-1.13207
-1.106
-1.07504
-1.0388
-0.996907
-0.949031
-0.8949
-0.834312
-0.767125
-0.693468
-0.614434
-0.530259
-0.886713
-0.896616
-0.910188
-0.924131
-0.937058
-0.949209
-0.960881
-0.972283
-0.983575
-0.99487
-1.00623
-1.01768
-1.02918
-1.04067
-1.05209
-1.06338
-1.07447
-1.08529
-1.09574
-1.10566
-1.11488
-1.1232
-1.13043
-1.1364
-1.14094
-1.14385
-1.14496
-1.14404
-1.14088
-1.13527
-1.12694
-1.11559
-1.1009
-1.08255
-1.06023
-1.03366
-1.00253
-0.966543
-0.925416
-0.878895
-0.82679
-0.768987
-0.705427
-0.636298
-0.562639
-0.484705
-0.858794
-0.868399
-0.881565
-0.895065
-0.907529
-0.919164
-0.930239
-0.940944
-0.951435
-0.961829
-0.972204
-0.982581
-0.99294
-1.00322
-1.01336
-1.02329
-1.03292
-1.04219
-1.05101
-1.05926
-1.06678
-1.0734
-1.07895
-1.08325
-1.08613
-1.08741
-1.08691
-1.08444
-1.0798
-1.07279
-1.06317
-1.05068
-1.03504
-1.01595
-0.993152
-0.966376
-0.935383
-0.899942
-0.859836
-0.814879
-0.764943
-0.709974
-0.649972
-0.585159
-0.516514
-0.444295
-0.831306
-0.840539
-0.853196
-0.866161
-0.878097
-0.889178
-0.899644
-0.909666
-0.919389
-0.928929
-0.938367
-0.947734
-0.957015
-0.966161
-0.9751
-0.983754
-0.992047
-0.999906
-1.00725
-1.01398
-1.01996
-1.02506
-1.02911
-1.03194
-1.03338
-1.03325
-1.03138
-1.02758
-1.02168
-1.01351
-1.00284
-0.989462
-0.97311
-0.953538
-0.930501
-0.903769
-0.873148
-0.838463
-0.799556
-0.756295
-0.708603
-0.656464
-0.599919
-0.539203
-0.475227
-0.408249
-0.804314
-0.813114
-0.825177
-0.837532
-0.84889
-0.859395
-0.869253
-0.878616
-0.887608
-0.896341
-0.904892
-0.913297
-0.921551
-0.929615
-0.937421
-0.944893
-0.951951
-0.958522
-0.964529
-0.969884
-0.974486
-0.978214
-0.980927
-0.982467
-0.982661
-0.981328
-0.97829
-0.97338
-0.966442
-0.957312
-0.945809
-0.931739
-0.914891
-0.895045
-0.871981
-0.845499
-0.815437
-0.781663
-0.74407
-0.702575
-0.657138
-0.607775
-0.554547
-0.497692
-0.438055
-0.375883
-0.777849
-0.786171
-0.797574
-0.809263
-0.820009
-0.829924
-0.839183
-0.847911
-0.856211
-0.864181
-0.871891
-0.879381
-0.886656
-0.893689
-0.900426
-0.906796
-0.912723
-0.918127
-0.922934
-0.927062
-0.930426
-0.932927
-0.934447
-0.934844
-0.933953
-0.931595
-0.92759
-0.921769
-0.913982
-0.904086
-0.891928
-0.877349
-0.860175
-0.840222
-0.817298
-0.791229
-0.761873
-0.729131
-0.692933
-0.653232
-0.610021