/*--------------------------------*- C++ -*----------------------------------*\
  =========                 |
  \\      /  F ield         | OpenFOAM: The Open Source CFD Toolbox
   \\    /   O peration     | Website:  https://openfoam.org
    \\  /    A nd           | Version:  7
     \\/     M anipulation  |
\*---------------------------------------------------------------------------*/
FoamFile
{
    version     2.0;
    format      ascii;
    class       surfaceScalarField;
    location    "0.25";
    object      phi;
}
// * * * * * * * * * * * * * * * * * * * * * * * * * * * * * * * * * * * * * //

dimensions      [0 3 -1 0 0 0 0];

internalField   nonuniform List<scalar> 
17936
(
-1.51999e-06
1.51999e-06
-1.01445e-06
-5.05532e-07
4.44313e-07
-1.45877e-06
2.19246e-06
-1.74814e-06
3.99275e-06
-1.80029e-06
5.73775e-06
-1.745e-06
7.39823e-06
-1.66048e-06
8.97532e-06
-1.57708e-06
1.04808e-05
-1.50552e-06
1.19299e-05
-1.44906e-06
1.33374e-05
-1.40756e-06
1.47169e-05
-1.37945e-06
1.60797e-05
-1.36276e-06
1.74351e-05
-1.35545e-06
1.87907e-05
-1.35558e-06
2.01519e-05
-1.36125e-06
2.15226e-05
-1.37065e-06
2.29046e-05
-1.38196e-06
2.42979e-05
-1.39332e-06
2.57007e-05
-1.40283e-06
2.71092e-05
-1.40845e-06
2.85172e-05
-1.40805e-06
2.99165e-05
-1.39931e-06
3.12962e-05
-1.37972e-06
3.26428e-05
-1.34654e-06
3.39395e-05
-1.29676e-06
3.51666e-05
-1.22708e-06
3.63004e-05
-1.1338e-06
3.73131e-05
-1.01263e-06
3.81715e-05
-8.5841e-07
3.88353e-05
-6.6384e-07
3.92529e-05
-4.17603e-07
3.93342e-05
-8.13383e-08
3.8932e-05
4.02291e-07
3.79066e-05
1.02536e-06
3.60987e-05
1.80788e-06
3.33021e-05
2.79662e-06
2.92618e-05
4.04028e-06
2.37359e-05
5.52588e-06
1.66504e-05
7.08552e-06
8.3644e-06
8.28601e-06
-8.21383e-08
8.44654e-06
-7.81964e-06
7.73751e-06
-1.30039e-05
5.18428e-06
-1.16008e-05
-1.40313e-06
-1.16008e-05
-5.19742e-07
2.03973e-06
3.26742e-07
-1.35202e-06
1.7271e-06
-2.85913e-06
3.37435e-06
-3.39539e-06
5.07463e-06
-3.50057e-06
6.74954e-06
-3.41991e-06
8.36814e-06
-3.27908e-06
9.92508e-06
-3.13403e-06
1.14269e-05
-3.00733e-06
1.28845e-05
-2.90671e-06
1.43099e-05
-2.83291e-06
1.57141e-05
-2.78369e-06
1.71071e-05
-2.75567e-06
1.84968e-05
-2.74517e-06
1.98897e-05
-2.74851e-06
2.12905e-05
-2.76208e-06
2.27022e-05
-2.78233e-06
2.4126e-05
-2.80573e-06
2.55613e-05
-2.82864e-06
2.70058e-05
-2.8473e-06
2.84551e-05
-2.85777e-06
2.99029e-05
-2.85583e-06
3.13405e-05
-2.83695e-06
3.2757e-05
-2.79624e-06
3.41388e-05
-2.72835e-06
3.54695e-05
-2.62744e-06
3.67295e-05
-2.48708e-06
3.78957e-05
-2.30003e-06
3.89411e-05
-2.05797e-06
3.98336e-05
-1.75092e-06
4.05359e-05
-1.36612e-06
4.10048e-05
-8.86502e-07
4.12118e-05
-2.88408e-07
4.11383e-05
4.75839e-07
4.07113e-05
1.45235e-06
3.98167e-05
2.70245e-06
3.83024e-05
4.31093e-06
3.59516e-05
6.39114e-06
3.2436e-05
9.04142e-06
2.73089e-05
1.22127e-05
2.01741e-05
1.54208e-05
1.11936e-05
1.7427e-05
1.99523e-06
1.69359e-05
-4.47359e-06
1.16531e-05
-6.1509e-06
2.74176e-07
-1.77517e-05
2.64264e-07
1.77546e-06
1.22411e-06
-2.31186e-06
2.60703e-06
-4.24205e-06
4.17336e-06
-4.96171e-06
5.79034e-06
-5.11755e-06
7.3948e-06
-5.02437e-06
8.95953e-06
-4.84381e-06
1.04778e-05
-4.6523e-06
1.19534e-05
-4.48293e-06
1.33946e-05
-4.3479e-06
1.4811e-05
-4.24932e-06
1.6212e-05
-4.18468e-06
1.76059e-05
-4.14958e-06
1.89997e-05
-4.13897e-06
2.03988e-05
-4.14765e-06
2.18072e-05
-4.17045e-06
2.32271e-05
-4.20221e-06
2.46591e-05
-4.23776e-06
2.61023e-05
-4.27181e-06
2.75538e-05
-4.29884e-06
2.90091e-05
-4.31306e-06
3.04616e-05
-4.30827e-06
3.19025e-05
-4.27786e-06
3.33209e-05
-4.21464e-06
3.47033e-05
-4.11081e-06
3.60337e-05
-3.95784e-06
3.72929e-05
-3.74631e-06
3.84586e-05
-3.46568e-06
3.95045e-05
-3.10384e-06
4.04e-05
-2.64646e-06
4.11098e-05
-2.07592e-06
4.1593e-05
-1.36967e-06
4.18046e-05
-5.00014e-07
4.17032e-05
5.77202e-07
4.12356e-05
1.91997e-06
4.03347e-05
3.60332e-06
3.89211e-05
5.72453e-06
3.69046e-05
8.40772e-06
3.41687e-05
1.17772e-05
3.05237e-05
1.58577e-05
2.56372e-05
2.03074e-05
1.91416e-05
2.39226e-05
1.15438e-05
2.45337e-05
4.30631e-06
1.88906e-05
1.34622e-08
4.56702e-06
-1.77382e-05
7.58671e-07
1.01679e-06
1.88677e-06
-3.43996e-06
3.28718e-06
-5.64246e-06
4.81259e-06
-6.48712e-06
6.37252e-06
-6.67748e-06
7.92165e-06
-6.57351e-06
9.4398e-06
-6.36195e-06
1.09217e-05
-6.13422e-06
1.23704e-05
-5.93158e-06
1.37925e-05
-5.77003e-06
1.51961e-05
-5.65296e-06
1.65893e-05
-5.57781e-06
1.7979e-05
-5.53933e-06
1.93713e-05
-5.5313e-06
2.07709e-05
-5.54717e-06
2.21807e-05
-5.58033e-06
2.36027e-05
-5.62415e-06
2.50369e-05
-5.67194e-06
2.64819e-05
-5.71682e-06
2.79346e-05
-5.75161e-06
2.93903e-05
-5.76875e-06
3.08422e-05
-5.76019e-06
3.22816e-05
-5.71726e-06
3.36976e-05
-5.63061e-06
3.50769e-05
-5.49008e-06
3.64036e-05
-5.28458e-06
3.76592e-05
-5.00188e-06
3.88218e-05
-4.62828e-06
3.98661e-05
-4.14815e-06
4.07627e-05
-3.54309e-06
4.14778e-05
-2.79095e-06
4.19722e-05
-1.8641e-06
4.22012e-05
-7.29068e-07
4.21174e-05
6.61028e-07
4.16686e-05
2.36883e-06
4.07977e-05
4.47417e-06
3.94468e-05
7.07541e-06
3.7567e-05
1.02876e-05
3.51264e-05
1.42179e-05
3.20966e-05
1.88874e-05
2.83776e-05
2.40264e-05
2.36639e-05
2.86362e-05
1.77357e-05
3.04619e-05
1.0832e-05
2.57944e-05
4.08578e-06
1.13132e-05
-1.36525e-05
1.03203e-06
-1.52433e-08
2.35146e-06
-4.75939e-06
3.81286e-06
-7.10387e-06
5.33388e-06
-8.00813e-06
6.86263e-06
-8.20623e-06
8.3733e-06
-8.08418e-06
9.85508e-06
-7.84373e-06
1.13064e-05
-7.58552e-06
1.27309e-05
-7.35615e-06
1.41351e-05
-7.17416e-06
1.55259e-05
-7.04378e-06
1.69104e-05
-6.96226e-06
1.82946e-05
-6.92361e-06
1.96839e-05
-6.92053e-06
2.10819e-05
-6.94524e-06
2.24914e-05
-6.98982e-06
2.39136e-05
-7.04628e-06
2.53481e-05
-7.10648e-06
2.67933e-05
-7.16206e-06
2.8246e-05
-7.20425e-06
2.9701e-05
-7.22381e-06
3.11517e-05
-7.21088e-06
3.25893e-05
-7.15486e-06
3.4003e-05
-7.0443e-06
3.53797e-05
-6.86679e-06
3.67039e-05
-6.60878e-06
3.79574e-05
-6.25534e-06
3.91189e-05
-5.78983e-06
4.01641e-05
-5.19326e-06
4.10645e-05
-4.44349e-06
4.17876e-05
-3.51409e-06
4.22963e-05
-2.37276e-06
4.25476e-05
-9.80391e-07
4.24945e-05
7.14125e-07
4.20867e-05
2.7766e-06
4.12727e-05
5.28822e-06
4.00045e-05
8.34361e-06
3.82485e-05
1.20435e-05
3.5997e-05
1.64694e-05
3.32672e-05
2.16172e-05
3.00564e-05
2.72372e-05
2.6198e-05
3.24945e-05
2.12892e-05
3.53707e-05
1.48517e-05
3.22319e-05
7.17615e-06
1.89887e-05
-6.4763e-06
1.18208e-06
-1.19732e-06
2.66822e-06
-6.24553e-06
4.21034e-06
-8.64599e-06
5.75208e-06
-9.54987e-06
7.27058e-06
-9.72474e-06
8.75813e-06
-9.57173e-06
1.0214e-05
-9.29958e-06
1.16414e-05
-9.01297e-06
1.30461e-05
-8.76084e-06
1.44347e-05
-8.56276e-06
1.5814e-05
-8.42308e-06
1.71903e-05
-8.33857e-06
1.85692e-05
-8.30244e-06
1.9955e-05
-8.30634e-06
2.13511e-05
-8.34135e-06
2.27596e-05
-8.39833e-06
2.41813e-05
-8.468e-06
2.56157e-05
-8.54088e-06
2.70608e-05
-8.60719e-06
2.85132e-05
-8.65666e-06
2.99679e-05
-8.67844e-06
3.14179e-05
-8.66091e-06
3.28546e-05
-8.59161e-06
3.42674e-05
-8.45707e-06
3.56434e-05
-8.24272e-06
3.69672e-05
-7.93264e-06
3.82212e-05
-7.50935e-06
3.93848e-05
-6.95339e-06
4.04342e-05
-6.24263e-06
4.13421e-05
-5.35143e-06
4.20774e-05
-4.24939e-06
4.26045e-05
-2.89982e-06
4.28826e-05
-1.2585e-06
4.28667e-05
7.29978e-07
4.25092e-05
3.13413e-06
4.17624e-05
6.03506e-06
4.05839e-05
9.52203e-06
3.89458e-05
1.36817e-05
3.68426e-05
1.85726e-05
3.42915e-05
2.41682e-05
3.13008e-05
3.0228e-05
2.77625e-05
3.60328e-05
2.32907e-05
3.98425e-05
1.71799e-05
3.83426e-05
9.09601e-06
2.70727e-05
2.61971e-06
1.2669e-06
-2.46422e-06
2.88273e-06
-7.86137e-06
4.50545e-06
-1.02687e-05
6.0804e-06
-1.11248e-05
7.60271e-06
-1.12471e-05
9.07914e-06
-1.10482e-05
1.05182e-05
-1.07386e-05
1.19283e-05
-1.04231e-05
1.33176e-05
-1.01502e-05
1.46937e-05
-9.93883e-06
1.60634e-05
-9.79277e-06
1.74327e-05
-9.70789e-06
1.88067e-05
-9.67643e-06
2.01894e-05
-9.689e-06
2.15836e-05
-9.73556e-06
2.2991e-05
-9.80581e-06
2.44123e-05
-9.88926e-06
2.58466e-05
-9.97517e-06
2.72918e-05
-1.00524e-05
2.87444e-05
-1.01093e-05
3.01993e-05
-1.01333e-05
3.16496e-05
-1.01113e-05
3.30869e-05
-1.00289e-05
3.45005e-05
-9.87067e-06
3.58778e-05
-9.62001e-06
3.72039e-05
-9.25871e-06
3.84614e-05
-8.76686e-06
3.96303e-05
-8.12231e-06
4.06877e-05
-7.29999e-06
4.16072e-05
-6.27095e-06
4.23589e-05
-5.00112e-06
4.29088e-05
-3.44972e-06
4.32182e-05
-1.56795e-06
4.32446e-05
7.0365e-07
4.29427e-05
3.43596e-06
4.22682e-05
6.70956e-06
4.11817e-05
1.06085e-05
3.96555e-05
1.52079e-05
3.7678e-05
2.055e-05
3.52506e-05
2.65956e-05
3.23607e-05
3.31179e-05
2.8904e-05
3.94896e-05
2.45345e-05
4.4212e-05
1.85407e-05
4.43364e-05
1.02563e-05
3.53571e-05
1.2876e-05
1.31676e-06
-3.78098e-06
3.029e-06
-9.57361e-06
4.72171e-06
-1.19614e-05
6.33234e-06
-1.27354e-05
7.86578e-06
-1.27805e-05
9.33911e-06
-1.25215e-05
1.07684e-05
-1.21679e-05
1.21668e-05
-1.18215e-05
1.3545e-05
-1.15283e-05
1.49115e-05
-1.13054e-05
1.62737e-05
-1.1155e-05
1.76375e-05
-1.10716e-05
1.90075e-05
-1.10465e-05
2.03876e-05
-1.10691e-05
2.17803e-05
-1.11282e-05
2.3187e-05
-1.12125e-05
2.46081e-05
-1.13103e-05
2.60426e-05
-1.14097e-05
2.74883e-05
-1.14982e-05
2.89417e-05
-1.15627e-05
3.03977e-05
-1.15893e-05
3.18496e-05
-1.15632e-05
3.32889e-05
-1.14681e-05
3.47052e-05
-1.1287e-05
3.60861e-05
-1.10009e-05
3.7417e-05
-1.05896e-05
3.8681e-05
-1.00309e-05
3.98586e-05
-9.29994e-06
4.09276e-05
-8.369e-06
4.18627e-05
-7.20602e-06
4.26351e-05
-5.77348e-06
4.32122e-05
-4.02684e-06
4.35574e-05
-1.91314e-06
4.36303e-05
6.30716e-07
4.33885e-05
3.67777e-06
4.27899e-05
7.30815e-06
4.17967e-05
1.16017e-05
4.03789e-05
1.66257e-05
3.85156e-05
2.24133e-05
3.61879e-05
2.89234e-05
3.33543e-05
3.59514e-05
2.98918e-05
4.29521e-05
2.54759e-05
4.8628e-05
1.94427e-05
5.03695e-05
1.10003e-05
4.37995e-05
2.38763e-05
1.34842e-06
-5.12939e-06
3.13029e-06
-1.13555e-05
4.87837e-06
-1.37095e-05
6.52063e-06
-1.43777e-05
8.06704e-06
-1.43269e-05
9.54155e-06
-1.3996e-05
1.09659e-05
-1.35922e-05
1.23568e-05
-1.32125e-05
1.37273e-05
-1.28988e-05
1.50871e-05
-1.26652e-05
1.64438e-05
-1.25117e-05
1.78035e-05
-1.24313e-05
1.91707e-05
-1.24137e-05
2.05489e-05
-1.24473e-05
2.19406e-05
-1.25199e-05
2.33469e-05
-1.26189e-05
2.47682e-05
-1.27315e-05
2.62033e-05
-1.28448e-05
2.76501e-05
-1.2945e-05
2.91051e-05
-1.30177e-05
3.05633e-05
-1.30475e-05
3.20179e-05
-1.30178e-05
3.34608e-05
-1.2911e-05
3.48816e-05
-1.27078e-05
3.62684e-05
-1.23876e-05
3.76067e-05
-1.19279e-05
3.88801e-05
-1.13042e-05
4.00696e-05
-1.04895e-05
4.11538e-05
-9.45318e-06
4.21082e-05
-8.16042e-06
4.29052e-05
-6.57049e-06
4.35137e-05
-4.63534e-06
4.38989e-05
-2.2983e-06
4.40226e-05
5.07e-07
4.38448e-05
3.85558e-06
4.33255e-05
7.8274e-06
4.24277e-05
1.24996e-05
4.11182e-05
1.79351e-05
3.93662e-05
2.41654e-05
3.7133e-05
3.11566e-05
3.43489e-05
3.87355e-05
3.08649e-05
4.6436e-05
2.6358e-05
5.31349e-05
2.01997e-05
5.65279e-05
1.15598e-05
5.24394e-05
3.54361e-05
1.37071e-06
-6.5001e-06
3.2015e-06
-1.31863e-05
4.98981e-06
-1.54978e-05
6.65615e-06
-1.6044e-05
8.21355e-06
-1.58843e-05
9.69045e-06
-1.54729e-05
1.11123e-05
-1.50141e-05
1.24988e-05
-1.4599e-05
1.38643e-05
-1.42643e-05
1.52196e-05
-1.40204e-05
1.65726e-05
-1.38647e-05
1.79295e-05
-1.37882e-05
1.92948e-05
-1.37791e-05
2.06719e-05
-1.38245e-05
2.20631e-05
-1.39111e-05
2.34696e-05
-1.40253e-05
2.48914e-05
-1.41534e-05
2.63277e-05
-1.42811e-05
2.77763e-05
-1.43935e-05
2.92336e-05
-1.4475e-05
3.06948e-05
-1.45087e-05
3.21535e-05
-1.44765e-05
3.36015e-05
-1.43589e-05
3.50287e-05
-1.41351e-05
3.64234e-05
-1.37823e-05
3.77715e-05
-1.32761e-05
3.9057e-05
-1.25898e-05
4.02616e-05
-1.1694e-05
4.13642e-05
-1.05558e-05
4.23415e-05
-9.13768e-06
4.31668e-05
-7.39585e-06
4.38106e-05
-5.27908e-06
4.42396e-05
-2.72737e-06
4.44181e-05
3.28535e-07
4.43082e-05
3.96547e-06
4.3872e-05
8.2636e-06
4.30729e-05
1.32987e-05
4.18749e-05
1.91331e-05
4.02383e-05
2.5802e-05
3.81075e-05
3.32874e-05
3.5388e-05
4.1455e-05
3.19041e-05
4.99199e-05
2.73188e-05
5.77203e-05
2.10089e-05
6.28377e-05
1.21285e-05
6.13198e-05
4.75647e-05
1.38814e-06
-7.88824e-06
3.25185e-06
-1.505e-05
5.06618e-06
-1.73121e-05
6.74756e-06
-1.77254e-05
8.31163e-06
-1.74484e-05
9.78988e-06
-1.69512e-05
1.12102e-05
-1.64344e-05
1.25937e-05
-1.59825e-05
1.3956e-05
-1.56266e-05
1.53084e-05
-1.53728e-05
1.66591e-05
-1.52154e-05
1.80143e-05
-1.51434e-05
1.93786e-05
-1.51433e-05
2.07553e-05
-1.52011e-05
2.21465e-05
-1.53023e-05
2.35535e-05
-1.54323e-05
2.49764e-05
-1.55763e-05
2.64143e-05
-1.5719e-05
2.78652e-05
-1.58444e-05
2.93256e-05
-1.59355e-05
3.07909e-05
-1.5974e-05
3.22548e-05
-1.59403e-05
3.37093e-05
-1.58134e-05
3.51446e-05
-1.55704e-05
3.65492e-05
-1.51869e-05
3.79095e-05
-1.46363e-05
3.92097e-05
-1.38899e-05
4.04319e-05
-1.29162e-05
4.1556e-05
-1.168e-05
4.25593e-05
-1.0141e-05
4.34164e-05
-8.2529e-06
4.40988e-05
-5.96155e-06
4.45755e-05
-3.20398e-06
4.48124e-05
9.15979e-08
4.47743e-05
4.0036e-06
4.44252e-05
8.6127e-06
4.37293e-05
1.39946e-05
4.26487e-05
2.02136e-05
4.11371e-05
2.73136e-05
3.91259e-05
3.52985e-05
3.65012e-05
4.40798e-05
3.30625e-05
5.33586e-05
2.84483e-05
6.23345e-05
2.20099e-05
6.9276e-05
1.28554e-05
7.04743e-05
6.04201e-05
1.40307e-06
-9.2913e-06
3.28688e-06
-1.69338e-05
5.11435e-06
-1.91396e-05
6.80138e-06
-1.94124e-05
8.36661e-06
-1.90136e-05
9.84372e-06
-1.84283e-05
1.12618e-05
-1.78525e-05
1.26429e-05
-1.73636e-05
1.4003e-05
-1.69867e-05
1.53535e-05
-1.67233e-05
1.67029e-05
-1.65648e-05
1.80572e-05
-1.64977e-05
1.94211e-05
-1.65072e-05
2.07978e-05
-1.65778e-05
2.21895e-05
-1.6694e-05
2.35974e-05
-1.68402e-05
2.50217e-05
-1.70006e-05
2.64617e-05
-1.7159e-05
2.79153e-05
-1.72981e-05
2.93795e-05
-1.73997e-05
3.08497e-05
-1.74442e-05
3.23198e-05
-1.74105e-05
3.37821e-05
-1.72757e-05
3.52272e-05
-1.70155e-05
3.66435e-05
-1.66033e-05
3.80179e-05
-1.60107e-05
3.93351e-05
-1.52071e-05
4.05776e-05
-1.41587e-05
4.17258e-05
-1.28282e-05
4.2758e-05
-1.11731e-05
4.36497e-05
-9.14461e-06
4.4374e-05
-6.68585e-06
4.49013e-05
-3.73133e-06
4.52001e-05
-2.07202e-07
4.52374e-05
3.9663e-06
4.49796e-05
8.87048e-06
4.43924e-05
1.45819e-05
4.34373e-05
2.11687e-05
4.20641e-05
2.86868e-05
4.01966e-05
3.7166e-05
3.77077e-05
4.65687e-05
3.43777e-05
5.66886e-05
2.98157e-05
6.68965e-05
2.33213e-05
7.57704e-05
1.38861e-05
7.99095e-05
7.43062e-05
1.41696e-06
-1.07083e-05
3.31e-06
-1.88268e-05
5.13892e-06
-2.09685e-05
6.82244e-06
-2.1096e-05
8.38285e-06
-2.0574e-05
9.85549e-06
-1.99009e-05
1.12699e-05
-1.9267e-05
1.26482e-05
-1.87419e-05
1.40062e-05
-1.83447e-05
1.53553e-05
-1.80724e-05
1.67038e-05
-1.79132e-05
1.80577e-05
-1.78516e-05
1.94216e-05
-1.78711e-05
2.07986e-05
-1.79548e-05
2.21909e-05
-1.80864e-05
2.36e-05
-1.82492e-05
2.50259e-05
-1.84266e-05
2.64682e-05
-1.86012e-05
2.79251e-05
-1.87549e-05
2.93936e-05
-1.88681e-05
3.08694e-05
-1.892e-05
3.23467e-05
-1.88878e-05
3.3818e-05
-1.87471e-05
3.5274e-05
-1.84715e-05
3.67038e-05
-1.8033e-05
3.80942e-05
-1.74011e-05
3.94303e-05
-1.65432e-05
4.06951e-05
-1.54236e-05
4.18698e-05
-1.40029e-05
4.29333e-05
-1.22365e-05
4.38621e-05
-1.00735e-05
4.46308e-05
-7.45455e-06
4.52116e-05
-4.31215e-06
4.55752e-05
-5.70799e-07
4.56913e-05
3.85025e-06
4.55289e-05
9.03286e-06
4.5056e-05
1.50548e-05
4.42354e-05
2.19894e-05
4.30166e-05
2.99055e-05
4.13212e-05
3.88614e-05
3.90174e-05
4.88725e-05
3.58759e-05
5.98301e-05
3.14804e-05
7.1292e-05
2.50669e-05
8.21839e-05
1.54037e-05
8.95727e-05
8.97099e-05
1.43097e-06
-1.21392e-05
3.32329e-06
-2.07192e-05
5.14288e-06
-2.27881e-05
6.81426e-06
-2.27673e-05
8.36388e-06
-2.21236e-05
9.82833e-06
-2.13653e-05
1.1237e-05
-2.06757e-05
1.26114e-05
-2.01163e-05
1.39669e-05
-1.97001e-05
1.53145e-05
-1.942e-05
1.66621e-05
-1.92609e-05
1.80157e-05
-1.92052e-05
1.93796e-05
-1.92349e-05
2.07569e-05
-1.93322e-05
2.215e-05
-1.94795e-05
2.35601e-05
-1.96594e-05
2.49878e-05
-1.98543e-05
2.64326e-05
-2.0046e-05
2.78929e-05
-2.02152e-05
2.93661e-05
-2.03413e-05
3.0848e-05
-2.04019e-05
3.23332e-05
-2.0373e-05
3.38145e-05
-2.02283e-05
3.52828e-05
-1.99398e-05
3.67272e-05
-1.94775e-05
3.81352e-05
-1.8809e-05
3.94919e-05
-1.78999e-05
4.0781e-05
-1.67127e-05
4.1984e-05
-1.52059e-05
4.30807e-05
-1.33332e-05
4.40486e-05
-1.10414e-05
4.48638e-05
-8.26968e-06
4.55002e-05
-4.94857e-06
4.59309e-05
-1.00152e-06
4.61284e-05
3.65272e-06
4.60651e-05
9.09623e-06
4.57119e-05
1.5408e-05
4.50349e-05
2.26663e-05
4.39871e-05
3.09534e-05
4.24942e-05
4.03543e-05
4.04299e-05
5.09368e-05
3.7571e-05
6.2689e-05
3.34936e-05
7.53694e-05
2.73877e-05
8.82898e-05
1.76583e-05
9.93021e-05
0.000107368
1.44622e-06
-1.35855e-05
3.32771e-06
-2.26007e-05
5.1281e-06
-2.45885e-05
6.77944e-06
-2.44187e-05
8.31262e-06
-2.36568e-05
9.7651e-06
-2.28178e-05
1.11656e-05
-2.20761e-05
1.25346e-05
-2.14853e-05
1.38866e-05
-2.10522e-05
1.5232e-05
-2.07654e-05
1.65784e-05
-2.06072e-05
1.79313e-05
-2.05581e-05
1.92949e-05
-2.05985e-05
2.06724e-05
-2.07096e-05
2.20659e-05
-2.0873e-05
2.3477e-05
-2.10704e-05
2.49063e-05
-2.12835e-05
2.63534e-05
-2.14932e-05
2.78172e-05
-2.1679e-05
2.92952e-05
-2.18193e-05
3.07837e-05
-2.18904e-05
3.22773e-05
-2.18666e-05
3.37692e-05
-2.17202e-05
3.52506e-05
-2.14212e-05
3.67109e-05
-2.09378e-05
3.81376e-05
-2.02358e-05
3.95164e-05
-1.92787e-05
4.08312e-05
-1.80274e-05
4.2064e-05
-1.64387e-05
4.31952e-05
-1.44645e-05
4.42038e-05
-1.20499e-05
4.50668e-05
-9.13267e-06
4.57602e-05
-5.64205e-06
4.62597e-05
-1.50096e-06
4.65406e-05
3.37179e-06
4.65789e-05
9.0579e-06
4.63499e-05
1.5637e-05
4.58247e-05
2.31915e-05
4.49632e-05
3.18149e-05
4.3702e-05
4.16155e-05
4.19327e-05
5.27061e-05
3.94595e-05
6.51622e-05
3.58894e-05
7.89395e-05
3.0454e-05
9.37252e-05
2.11011e-05
0.000108655
0.000128469
1.46047e-06
-1.50459e-05
3.32348e-06
-2.44637e-05
5.09572e-06
-2.63607e-05
6.7201e-06
-2.60431e-05
8.2318e-06
-2.51685e-05
9.66875e-06
-2.42548e-05
1.10585e-05
-2.34659e-05
1.24204e-05
-2.28471e-05
1.37677e-05
-2.23995e-05
1.51101e-05
-2.21078e-05
1.64545e-05
-2.19516e-05
1.78061e-05
-2.19098e-05
1.9169e-05
-2.19614e-05
2.05461e-05
-2.20868e-05
2.19397e-05
-2.22666e-05
2.33514e-05
-2.24821e-05
2.4782e-05
-2.27141e-05
2.62313e-05
-2.29425e-05
2.76985e-05
-2.31462e-05
2.91814e-05
-2.33022e-05
3.06765e-05
-2.33855e-05
3.2179e-05
-2.3369e-05
3.3682e-05
-2.32232e-05
3.51772e-05
-2.29164e-05
3.66542e-05
-2.24148e-05
3.81007e-05
-2.16823e-05
3.95026e-05
-2.06806e-05
4.08441e-05
-1.93689e-05
4.21078e-05
-1.77023e-05
4.32747e-05
-1.56314e-05
4.43246e-05
-1.30999e-05
4.52362e-05
-1.00443e-05
4.59875e-05
-6.39331e-06
4.65564e-05
-2.06982e-06
4.69216e-05
3.00657e-06
4.70631e-05
8.91642e-06
4.69611e-05
1.5739e-05
4.65934e-05
2.35592e-05
4.59302e-05
3.24781e-05
4.49251e-05
4.26206e-05
4.34998e-05
5.41313e-05
4.15129e-05
6.71492e-05
3.86671e-05
8.17853e-05
3.43469e-05
9.80454e-05
2.5547e-05
0.000117455
0.000154016
-5.10516e-07
5.10516e-07
-1.85565e-06
1.34508e-06
-3.07868e-06
1.22304e-06
-3.84939e-06
7.70735e-07
-4.20108e-06
3.51669e-07
-4.21347e-06
1.2408e-08
-3.99367e-06
-2.19827e-07
-3.62773e-06
-3.65946e-07
-3.17528e-06
-4.52435e-07
-2.6788e-06
-4.96506e-07
-2.16877e-06
-5.10041e-07
-1.66767e-06
-5.01109e-07
-1.19187e-06
-4.75789e-07
-7.52623e-07
-4.39286e-07
-3.57259e-07
-3.95345e-07
-9.54444e-09
-3.47714e-07
2.903e-07
-2.99865e-07
5.42891e-07
-2.52569e-07
7.50009e-07
-2.07139e-07
9.13911e-07
-1.63896e-07
1.03723e-06
-1.23308e-07
1.12234e-06
-8.51043e-08
1.17204e-06
-4.96875e-08
1.18919e-06
-1.71694e-08
1.17596e-06
1.32337e-08
1.1349e-06
4.1074e-08
1.06866e-06
6.62205e-08
9.79889e-07
8.87733e-08
8.70949e-07
1.08958e-07
7.43937e-07
1.26991e-07
6.01639e-07
1.423e-07
4.47672e-07
1.53948e-07
2.87053e-07
1.60619e-07
1.26743e-07
1.60329e-07
-2.19714e-08
1.48703e-07
-1.32089e-07
1.10137e-07
-1.49742e-07
1.7648e-08
-1.49712e-07
-1.0866e-06
1.59714e-06
-2.41442e-06
2.67285e-06
-3.50685e-06
2.31546e-06
-4.17157e-06
1.43549e-06
-4.44821e-06
6.2828e-07
-4.436e-06
2.0591e-10
-4.20915e-06
-4.46694e-07
-3.84068e-06
-7.34462e-07
-3.38446e-06
-9.08628e-07
-2.88152e-06
-9.9948e-07
-2.36259e-06
-1.02898e-06
-1.85012e-06
-1.01362e-06
-1.36048e-06
-9.65393e-07
-9.05453e-07
-8.94335e-07
-4.92698e-07
-8.08106e-07
-1.26662e-07
-7.13731e-07
1.90543e-07
-6.17125e-07
4.59848e-07
-5.21845e-07
6.82097e-07
-4.29374e-07
8.59633e-07
-3.41425e-07
9.95081e-07
-2.58738e-07
1.09096e-06
-1.81026e-07
1.15007e-06
-1.08783e-07
1.17534e-06
-4.24146e-08
1.16946e-06
1.90845e-08
1.13543e-06
7.50915e-08
1.07546e-06
1.26183e-07
9.92503e-07
1.71712e-07
8.89344e-07
2.1209e-07
7.68747e-07
2.47578e-07
6.33805e-07
2.77318e-07
4.88154e-07
2.99592e-07
3.36799e-07
3.11942e-07
1.86997e-07
3.10171e-07
5.05203e-08
2.8516e-07
-5.4028e-08
2.14708e-07
-9.58437e-08
5.94546e-08
-2.45543e-07
-1.39637e-06
2.99352e-06
-2.65988e-06
3.93634e-06
-3.64964e-06
3.30521e-06
-4.26509e-06
2.05096e-06
-4.52842e-06
8.91585e-07
-4.50755e-06
-2.06717e-08
-4.28382e-06
-6.70419e-07
-3.91903e-06
-1.09929e-06
-3.4673e-06
-1.36035e-06
-2.96867e-06
-1.49812e-06
-2.45307e-06
-1.54458e-06
-1.94247e-06
-1.52426e-06
-1.45284e-06
-1.45501e-06
-9.95795e-07
-1.35139e-06
-5.79144e-07
-1.2248e-06
-2.07665e-07
-1.08518e-06
1.16011e-07
-9.40827e-07
3.91649e-07
-7.97481e-07
6.20276e-07
-6.5797e-07
8.04077e-07
-5.25264e-07
9.45491e-07
-4.00153e-07
1.04716e-06
-2.82717e-07
1.11193e-06
-1.73566e-07
1.14264e-06
-7.31653e-08
1.14249e-06
1.91901e-08
1.11406e-06
1.03559e-07
1.06026e-06
1.79943e-07
9.84067e-07
2.47942e-07
8.88528e-07
3.07702e-07
7.76682e-07
3.59369e-07
6.51875e-07
4.02113e-07
5.17805e-07
4.33664e-07
3.7933e-07
4.5041e-07
2.43208e-07
4.46335e-07
1.18622e-07
4.09752e-07
1.67931e-08
3.16568e-07
-4.86375e-08
1.24865e-07
-2.94156e-07
-1.55332e-06
4.54685e-06
-2.80394e-06
5.18695e-06
-3.74612e-06
4.24737e-06
-4.33146e-06
2.63632e-06
-4.5786e-06
1.1387e-06
-4.55008e-06
-4.9216e-08
-4.32103e-06
-8.99437e-07
-3.95544e-06
-1.46489e-06
-3.50549e-06
-1.81029e-06
-3.0104e-06
-1.99322e-06
-2.49902e-06
-2.05594e-06
-1.99252e-06
-2.03079e-06
-1.5062e-06
-1.94136e-06
-1.05114e-06
-1.80645e-06
-6.34998e-07
-1.64096e-06
-2.62639e-07
-1.45754e-06
6.30761e-08
-1.26655e-06
3.41254e-07
-1.07568e-06
5.72878e-07
-8.89612e-07
7.59776e-07
-7.12209e-07
9.04475e-07
-5.44855e-07
1.00964e-06
-3.87926e-07
1.07814e-06
-2.42052e-07
1.11292e-06
-1.07878e-07
1.11701e-06
1.50546e-08
1.09344e-06
1.27173e-07
1.04516e-06
2.28232e-07
9.75208e-07
3.17846e-07
8.8678e-07
3.96106e-07
7.83048e-07
4.63072e-07
6.67486e-07
5.17754e-07
5.43823e-07
5.57376e-07
4.16708e-07
5.77472e-07
2.92277e-07
5.70796e-07
1.77894e-07
5.24134e-07
8.05758e-08
4.13921e-07
1.2686e-08
1.92732e-07
-2.81432e-07
-1.64286e-06
6.18972e-06
-2.91236e-06
6.45644e-06
-3.84245e-06
5.17744e-06
-4.40836e-06
3.20223e-06
-4.63676e-06
1.36709e-06
-4.59223e-06
-9.37642e-08
-4.3503e-06
-1.14133e-06
-3.97671e-06
-1.83849e-06
-3.52325e-06
-2.26377e-06
-3.02821e-06
-2.48828e-06
-2.51928e-06
-2.56489e-06
-2.01644e-06
-2.53365e-06
-1.53404e-06
-2.42377e-06
-1.08241e-06
-2.25809e-06
-6.68767e-07
-2.05462e-06
-2.97827e-07
-1.82847e-06
2.74796e-08
-1.59189e-06
3.06092e-07
-1.35432e-06
5.38683e-07
-1.12218e-06
7.26947e-07
-9.00449e-07
8.73345e-07
-6.91198e-07
9.80576e-07
-4.95142e-07
1.05155e-06
-3.13044e-07
1.08924e-06
-1.45558e-07
1.09671e-06
7.55839e-09
1.07714e-06
1.46747e-07
1.03356e-06
2.71784e-07
9.69056e-07
3.82348e-07
8.8685e-07
4.78381e-07
7.90159e-07
5.59747e-07
6.82475e-07
6.25402e-07
5.6753e-07
6.72328e-07
4.4971e-07
6.95276e-07
3.34447e-07
6.86064e-07
2.27672e-07
6.30911e-07
1.34406e-07
5.0721e-07
6.05348e-08
2.66568e-07
-2.20867e-07
-1.71551e-06
7.90523e-06
-3.02388e-06
7.7648e-06
-3.96377e-06
6.1173e-06
-4.51494e-06
3.75341e-06
-4.71873e-06
1.57087e-06
-4.64807e-06
-1.64434e-07
-4.38359e-06
-1.40579e-06
-3.99364e-06
-2.22844e-06
-3.53026e-06
-2.72718e-06
-3.0308e-06
-2.98776e-06
-2.52151e-06
-3.07419e-06
-2.02087e-06
-3.03429e-06
-1.54202e-06
-2.90263e-06
-1.09427e-06
-2.70582e-06
-6.84154e-07
-2.46476e-06
-3.16015e-07
-2.19659e-06
7.37702e-09
-1.91525e-06
2.84888e-07
-1.63178e-06
5.1705e-07
-1.35432e-06
7.05386e-07
-1.08881e-06
8.52307e-07
-8.38134e-07
9.60523e-07
-6.03358e-07
1.03298e-06
-3.85463e-07
1.07268e-06
-1.85244e-07
1.08272e-06
-2.53743e-09
1.06635e-06
1.63119e-07
1.02666e-06
3.11525e-07
9.66731e-07
4.4229e-07
8.89752e-07
5.55336e-07
7.98948e-07
6.50507e-07
6.97758e-07
7.26581e-07
5.89807e-07
7.80276e-07
4.79173e-07
8.05905e-07
3.70559e-07
7.94689e-07
2.68575e-07
7.32901e-07
1.76218e-07
5.99591e-07
9.29473e-08
3.49796e-07
-1.27914e-07
-1.80236e-06
9.70758e-06
-3.16708e-06
9.12952e-06
-4.13009e-06
7.08028e-06
-4.6655e-06
4.28883e-06
-4.83489e-06
1.74027e-06
-4.72573e-06
-2.73626e-07
-4.42719e-06
-1.70433e-06
-4.01147e-06
-2.64415e-06
-3.53107e-06
-3.20761e-06
-3.02216e-06
-3.49668e-06
-2.50921e-06
-3.58713e-06
-2.00889e-06
-3.53459e-06
-1.53275e-06
-3.37878e-06
-1.08885e-06
-3.14968e-06
-6.82814e-07
-2.8708e-06
-3.18405e-07
-2.56098e-06
1.92546e-09
-2.23559e-06
2.7717e-07
-1.90705e-06
5.07736e-07
-1.58491e-06
6.95074e-07
-1.27614e-06
8.41538e-07
-9.84536e-07
9.49816e-07
-7.11663e-07
1.02288e-06
-4.58574e-07
1.06377e-06
-2.2612e-07
1.07563e-06
-1.43261e-08
1.06167e-06
1.77098e-07
1.02503e-06
3.48128e-07
9.68778e-07
4.98498e-07
8.96047e-07
6.28078e-07
8.09993e-07
7.36596e-07
7.13944e-07
8.22669e-07
6.11362e-07
8.82871e-07
5.05932e-07
9.11297e-07
4.01643e-07
8.98982e-07
3.01878e-07
8.32664e-07
2.07953e-07
6.93552e-07
1.15208e-07
4.42518e-07
-1.2715e-08
-1.92905e-06
1.16366e-05
-3.36892e-06
1.05694e-05
-4.36146e-06
8.07279e-06
-4.87346e-06
4.80083e-06
-4.99381e-06
1.86062e-06
-4.83065e-06
-4.36802e-07
-4.48469e-06
-2.05029e-06
-4.03277e-06
-3.09606e-06
-3.5277e-06
-3.71268e-06
-3.00401e-06
-4.02036e-06
-2.48391e-06
-4.10723e-06
-1.9818e-06
-4.03669e-06
-1.50732e-06
-3.85328e-06
-1.06703e-06
-3.59e-06
-6.65381e-07
-3.27246e-06
-3.05407e-07
-2.92097e-06
1.09273e-08
-2.55195e-06
2.82862e-07
-2.17897e-06
5.10821e-07
-1.81286e-06
6.96178e-07
-1.46154e-06
8.41254e-07
-1.12961e-06
9.48737e-07
-8.19131e-07
1.0216e-06
-5.31391e-07
1.06291e-06
-2.67402e-07
1.07578e-06
-2.72268e-08
1.06343e-06
1.894e-07
1.02902e-06
3.82563e-07
9.75557e-07
5.52007e-07
9.06101e-07
6.97581e-07
8.23693e-07
8.18991e-07
7.3151e-07
9.1483e-07
6.32793e-07
9.81616e-07
5.30792e-07
1.01328e-06
4.28788e-07
1.001e-06
3.29102e-07
9.32326e-07
2.31771e-07
7.90915e-07
1.29999e-07
5.44293e-07
1.17283e-07
-2.1247e-06
1.37613e-05
-3.6606e-06
1.21053e-05
-4.68054e-06
9.09269e-06
-5.15283e-06
5.27308e-06
-5.20318e-06
1.91099e-06
-4.96676e-06
-6.73216e-07
-4.55798e-06
-2.45906e-06
-4.05846e-06
-3.5956e-06
-3.52065e-06
-4.25049e-06
-2.97672e-06
-4.56429e-06
-2.44588e-06
-4.63809e-06
-1.93985e-06
-4.54277e-06
-1.46592e-06
-4.32722e-06
-1.02889e-06
-4.02703e-06
-6.31854e-07
-3.6695e-06
-2.76915e-07
-3.2759e-06
3.45723e-08
-2.86345e-06
3.02228e-07
-2.44664e-06
5.26586e-07
-2.03721e-06
7.09013e-07
-1.64398e-06
8.51803e-07
-1.27236e-06
9.57632e-07
-9.24966e-07
1.02946e-06
-6.03249e-07
1.07038e-06
-3.08307e-07
1.08347e-06
-4.03141e-08
1.07194e-06
2.00947e-07
1.0389e-06
4.15634e-07
9.87323e-07
6.03583e-07
9.20182e-07
7.64728e-07
8.40372e-07
8.98774e-07
7.50873e-07
1.00431e-06
6.54644e-07
1.07787e-06
5.54497e-07
1.11342e-06
4.53047e-07
1.10247e-06
3.51743e-07
1.0336e-06
2.49714e-07
8.92949e-07
1.39514e-07
6.54497e-07
2.568e-07
-2.42886e-06
1.61901e-05
-4.08175e-06
1.37582e-05
-5.11365e-06
1.01246e-05
-5.5181e-06
5.67752e-06
-5.46971e-06
1.8626e-06
-5.13651e-06
-1.00643e-06
-4.64751e-06
-2.94807e-06
-4.08814e-06
-4.15497e-06
-3.5093e-06
-4.82938e-06
-2.93962e-06
-5.13399e-06
-2.39456e-06
-5.18315e-06
-1.88251e-06
-5.05482e-06
-1.4081e-06
-4.80165e-06
-9.74001e-07
-4.46112e-06
-5.8179e-07
-4.06173e-06
-2.32459e-07
-3.62523e-06
7.33716e-08
-3.16929e-06
3.35783e-07
-2.70903e-06
5.55535e-07
-2.25692e-06
7.34058e-07
-1.82252e-06
8.73628e-07
-1.41191e-06
9.76919e-07
-1.02826e-06
1.04687e-06
-6.73238e-07
1.08656e-06
-3.47961e-07
1.09903e-06
-5.27674e-08
1.08747e-06
2.12537e-07
1.05493e-06
4.48166e-07
1.00434e-06
6.54136e-07
9.38573e-07
8.30506e-07
8.60348e-07
9.76997e-07
7.72417e-07
1.09225e-06
6.77419e-07
1.17287e-06
5.77743e-07
1.21307e-06
4.75396e-07
1.20483e-06
3.71157e-07
1.13783e-06
2.63583e-07
1.0005e-06
1.45566e-07
7.72508e-07
4.02353e-07
-2.89878e-06
1.90889e-05
-4.68364e-06
1.55431e-05
-5.69029e-06
1.11312e-05
-5.98314e-06
5.97036e-06
-5.79829e-06
1.67775e-06
-5.34056e-06
-1.46418e-06
-4.75218e-06
-3.53649e-06
-4.1202e-06
-4.78696e-06
-3.49201e-06
-5.45757e-06
-2.89126e-06
-5.73472e-06
-2.3287e-06
-5.7457e-06
-1.80874e-06
-5.57476e-06
-1.33293e-06
-5.27746e-06
-9.01545e-07
-4.89249e-06
-5.14411e-07
-4.44886e-06
-1.71289e-07
-3.96831e-06
1.28034e-07
-3.46863e-06
3.84216e-07
-2.9652e-06
5.98337e-07
-2.47101e-06
7.71948e-07
-1.99617e-06
9.07322e-07
-1.54729e-06
1.00714e-06
-1.12805e-06
1.07431e-06
-7.40412e-07
1.11188e-06
-3.85507e-07
1.12287e-06
-6.37678e-08
1.11039e-06
2.25016e-07
1.07746e-06
4.81097e-07
1.02695e-06
7.04653e-07
9.616e-07
8.95881e-07
8.83963e-07
1.05463e-06
7.96526e-07
1.17969e-06
7.01608e-07
1.26779e-06
6.01182e-07
1.31349e-06
4.96722e-07
1.3093e-06
3.88523e-07
1.24604e-06
2.74866e-07
1.11414e-06
1.49563e-07
8.97821e-07
5.51884e-07
-3.61798e-06
2.27069e-05
-5.53051e-06
1.74556e-05
-6.44053e-06
1.20412e-05
-6.55868e-06
6.0885e-06
-6.19058e-06
1.30965e-06
-5.57706e-06
-2.07772e-06
-4.86918e-06
-4.24435e-06
-4.15185e-06
-5.50428e-06
-3.46634e-06
-6.14306e-06
-2.82958e-06
-6.37146e-06
-2.24657e-06
-6.32867e-06
-1.71708e-06
-6.10425e-06
-1.23917e-06
-5.75538e-06
-8.10412e-07
-5.32123e-06
-4.28708e-07
-4.83058e-06
-9.2463e-08
-4.30453e-06
1.99478e-07
-3.76059e-06
4.48396e-07
-3.21414e-06
6.5581e-07
-2.6784e-06
8.23459e-07
-2.16381e-06
9.53618e-07
-1.67744e-06
1.04897e-06
-1.22336e-06
1.1124e-06
-8.03845e-07
1.14691e-06
-4.20023e-07
1.15548e-06
-7.23543e-08
1.14115e-06
2.39343e-07
1.10691e-06
5.15359e-07
1.05554e-06
7.56054e-07
9.8965e-07
9.61795e-07
9.11609e-07
1.13267e-06
8.23623e-07
1.26766e-06
7.27703e-07
1.36373e-06
6.25429e-07
1.41577e-06
5.17824e-07
1.4169e-06
4.04849e-07
1.35903e-06
2.84746e-07
1.23424e-06
1.52536e-07
1.03007e-06
7.04393e-07
-4.7081e-06
2.74149e-05
-6.69682e-06
1.94444e-05
-7.39017e-06
1.27345e-05
-7.24885e-06
5.94719e-06
-6.64321e-06
7.04008e-07
-5.841e-06
-2.87994e-06
-4.99381e-06
-5.09153e-06
-4.17913e-06
-6.31896e-06
-3.42907e-06
-6.89312e-06
-2.752e-06
-7.04857e-06
-2.1461e-06
-6.9346e-06
-1.60583e-06
-6.64452e-06