/*--------------------------------*- C++ -*----------------------------------*\
  =========                 |
  \\      /  F ield         | OpenFOAM: The Open Source CFD Toolbox
   \\    /   O peration     | Website:  https://openfoam.org
    \\  /    A nd           | Version:  7
     \\/     M anipulation  |
\*---------------------------------------------------------------------------*/
FoamFile
{
    version     2.0;
    format      ascii;
    class       volVectorField;
    location    "0.25";
    object      U;
}
// * * * * * * * * * * * * * * * * * * * * * * * * * * * * * * * * * * * * * //

dimensions      [0 1 -1 0 0 0 0];

internalField   nonuniform List<vector> 
9072
(
(-0.0327479 0.0101923 0)
(-0.0361783 -0.003647 0)
(-0.00796877 -0.0109802 0)
(0.029708 -0.0128013 0)
(0.0707176 -0.0129419 0)
(0.111326 -0.0123211 0)
(0.150275 -0.0115421 0)
(0.18724 -0.0108178 0)
(0.222391 -0.0102078 0)
(0.256066 -0.0097237 0)
(0.28862 -0.00935766 0)
(0.320382 -0.00909388 0)
(0.351638 -0.00891545 0)
(0.382627 -0.00880657 0)
(0.413541 -0.00875284 0)
(0.444529 -0.00874106 0)
(0.475698 -0.00875883 0)
(0.50711 -0.00879418 0)
(0.53879 -0.00883518 0)
(0.570717 -0.00886963 0)
(0.602826 -0.00888477 0)
(0.635005 -0.00886707 0)
(0.667091 -0.00880197 0)
(0.698866 -0.0086736 0)
(0.730052 -0.00846456 0)
(0.760306 -0.00815578 0)
(0.789215 -0.00772613 0)
(0.816283 -0.00715201 0)
(0.840926 -0.0064062 0)
(0.862452 -0.00545564 0)
(0.880037 -0.00425335 0)
(0.892603 -0.00272909 0)
(0.899144 -0.000486178 0)
(0.896272 0.00266213 0)
(0.880706 0.0069273 0)
(0.849376 0.0124593 0)
(0.798366 0.0195301 0)
(0.722573 0.0285454 0)
(0.616121 0.0396332 0)
(0.474291 0.0513717 0)
(0.297001 0.0591359 0)
(0.0958799 0.0562261 0)
(-0.0987423 0.0469296 0)
(-0.285952 0.0232781 0)
(-0.339101 -0.0275712 0)
(-0.13348 -0.0969634 0)
(-0.0187802 0.0219059 0)
(-0.00584646 -0.00890759 0)
(0.0220803 -0.0234186 0)
(0.0578497 -0.0284247 0)
(0.0964837 -0.0294517 0)
(0.135218 -0.0287366 0)
(0.172886 -0.0274804 0)
(0.209131 -0.0261924 0)
(0.244005 -0.0250702 0)
(0.277733 -0.024179 0)
(0.310587 -0.0235231 0)
(0.342835 -0.0230811 0)
(0.37472 -0.022823 0)
(0.406447 -0.0227165 0)
(0.438183 -0.0227302 0)
(0.470054 -0.0228332 0)
(0.502148 -0.0229953 0)
(0.534512 -0.0231865 0)
(0.567156 -0.0233761 0)
(0.600045 -0.0235322 0)
(0.633105 -0.0236213 0)
(0.666213 -0.0236079 0)
(0.699199 -0.0234535 0)
(0.731842 -0.0231169 0)
(0.763861 -0.022553 0)
(0.794915 -0.0217126 0)
(0.824596 -0.0205417 0)
(0.85242 -0.0189798 0)
(0.877816 -0.0169572 0)
(0.900116 -0.0143903 0)
(0.91853 -0.0111667 0)
(0.932165 -0.00712541 0)
(0.939821 -0.00184956 0)
(0.941612 0.00500829 0)
(0.936456 0.0138581 0)
(0.922113 0.0251622 0)
(0.895703 0.0396547 0)
(0.853363 0.0582969 0)
(0.789333 0.0817187 0)
(0.694922 0.108704 0)
(0.558252 0.133667 0)
(0.370592 0.144879 0)
(0.144703 0.135622 0)
(-0.0641179 0.0887026 0)
(-0.167653 -0.0154952 0)
(-0.0694905 -0.177181 0)
(-0.00157896 0.022321 0)
(0.0140739 -0.0190702 0)
(0.0426378 -0.0380705 0)
(0.0770033 -0.0451333 0)
(0.113723 -0.0466787 0)
(0.150695 -0.0457981 0)
(0.186943 -0.0440815 0)
(0.222137 -0.0422647 0)
(0.25628 -0.0406598 0)
(0.289528 -0.0393796 0)
(0.322098 -0.0384421 0)
(0.354213 -0.0378227 0)
(0.386077 -0.0374795 0)
(0.417866 -0.0373653 0)
(0.449724 -0.037432 0)
(0.481756 -0.0376318 0)
(0.514033 -0.0379175 0)
(0.546589 -0.0382413 0)
(0.579421 -0.0385548 0)
(0.612484 -0.0388074 0)
(0.645697 -0.0389458 0)
(0.67893 -0.0389135 0)
(0.712011 -0.0386494 0)
(0.744716 -0.0380879 0)
(0.776767 -0.0371574 0)
(0.807829 -0.0357797 0)
(0.837501 -0.0338686 0)
(0.865311 -0.0313274 0)
(0.890708 -0.0280451 0)
(0.913047 -0.0238896 0)
(0.931577 -0.018696 0)
(0.945442 -0.0122469 0)
(0.953585 -0.00427597 0)
(0.955095 0.00566569 0)
(0.948949 0.0181881 0)
(0.933765 0.0340606 0)
(0.907879 0.0543074 0)
(0.869431 0.080252 0)
(0.816311 0.113147 0)
(0.745625 0.152921 0)
(0.651659 0.195139 0)
(0.52395 0.226274 0)
(0.3521 0.226431 0)
(0.16899 0.165485 0)
(0.000815075 0.0234416 0)
(0.00843964 -0.206838 0)
(0.0080929 0.0160317 0)
(0.0280479 -0.0303285 0)
(0.0582544 -0.0529981 0)
(0.0921779 -0.0616367 0)
(0.127677 -0.0636013 0)
(0.163322 -0.0625823 0)
(0.198392 -0.0604834 0)
(0.232639 -0.0582244 0)
(0.266064 -0.0562145 0)
(0.298794 -0.0546097 0)
(0.331007 -0.0534418 0)
(0.362893 -0.0526841 0)
(0.394625 -0.052285 0)
(0.426355 -0.0521836 0)
(0.458204 -0.0523163 0)
(0.490261 -0.0526196 0)
(0.522582 -0.0530297 0)
(0.555189 -0.0534824 0)
(0.588069 -0.0539117 0)
(0.62117 -0.0542492 0)
(0.654403 -0.0544224 0)
(0.687636 -0.0543542 0)
(0.720695 -0.0539621 0)
(0.753356 -0.0531565 0)
(0.785344 -0.0518402 0)
(0.816328 -0.0499071 0)
(0.845917 -0.0472401 0)
(0.87365 -0.0437078 0)
(0.898991 -0.0391602 0)
(0.921321 -0.03342 0)
(0.939918 -0.0262718 0)
(0.953959 -0.0174443 0)
(0.96247 -0.00660903 0)
(0.964404 0.00672358 0)
(0.958643 0.0232041 0)
(0.943934 0.0436784 0)
(0.918938 0.0692213 0)
(0.882402 0.101147 0)
(0.833417 0.140743 0)
(0.771563 0.188348 0)
(0.695971 0.240832 0)
(0.602741 0.286403 0)
(0.479144 0.300204 0)
(0.328288 0.243206 0)
(0.142414 0.0844652 0)
(0.0745843 -0.174065 0)
(0.0121703 0.00593414 0)
(0.0372122 -0.0436981 0)
(0.0699666 -0.0684806 0)
(0.104325 -0.0780812 0)
(0.139291 -0.0802643 0)
(0.174078 -0.0790853 0)
(0.208265 -0.0766605 0)
(0.241737 -0.0740392 0)
(0.274537 -0.0717031 0)
(0.306791 -0.0698427 0)
(0.338657 -0.0685009 0)
(0.370302 -0.0676499 0)
(0.401878 -0.0672293 0)
(0.433514 -0.0671663 0)
(0.465314 -0.0673834 0)
(0.497354 -0.067802 0)
(0.529675 -0.0683431 0)
(0.562291 -0.0689266 0)
(0.595179 -0.0694699 0)
(0.628283 -0.0698871 0)
(0.661508 -0.0700873 0)
(0.694721 -0.0699735 0)
(0.727746 -0.0694419 0)
(0.760361 -0.0683799 0)
(0.792294 -0.0666657 0)
(0.823219 -0.064166 0)
(0.852752 -0.060734 0)
(0.880447 -0.0562057 0)
(0.905782 -0.0503936 0)
(0.928159 -0.0430786 0)
(0.946885 -0.0339978 0)
(0.961171 -0.0228271 0)
(0.970098 -0.00917399 0)
(0.972637 0.0074918 0)
(0.967678 0.0278634 0)
(0.954042 0.0528143 0)
(0.930559 0.0833928 0)
(0.896246 0.120769 0)
(0.850584 0.165965 0)
(0.793781 0.219099 0)
(0.726376 0.277449 0)
(0.647763 0.331299 0)
(0.549418 0.357345 0)
(0.421919 0.314951 0)
(0.239606 0.163474 0)
(0.12123 -0.110428 0)
(0.0137528 -0.00625886 0)
(0.0429728 -0.0589715 0)
(0.078504 -0.0847195 0)
(0.113857 -0.0946085 0)
(0.148825 -0.0967028 0)
(0.183162 -0.095261 0)
(0.216753 -0.0925123 0)
(0.249641 -0.0895759 0)
(0.281937 -0.0869743 0)
(0.313786 -0.0849175 0)
(0.345347 -0.0834539 0)
(0.376771 -0.0825522 0)
(0.408194 -0.0821439 0)
(0.439733 -0.0821446 0)
(0.471475 -0.0824643 0)
(0.503483 -0.0830106 0)
(0.53579 -0.0836902 0)
(0.568401 -0.084408 0)
(0.601288 -0.0850659 0)
(0.634388 -0.085561 0)
(0.667607 -0.0857848 0)
(0.700808 -0.0856212 0)
(0.733816 -0.0849458 0)
(0.76641 -0.083624 0)
(0.798322 -0.0815099 0)
(0.829233 -0.0784444 0)
(0.858768 -0.0742524 0)
(0.886488 -0.0687386 0)
(0.911891 -0.0616809 0)
(0.934398 -0.0528207 0)
(0.953342 -0.0418509 0)
(0.967966 -0.0283984 0)
(0.9774 -0.0120122 0)
(0.980659 0.00788351 0)
(0.976682 0.0320144 0)
(0.964357 0.0612581 0)
(0.942625 0.0966086 0)
(0.910633 0.139073 0)
(0.867957 0.189395 0)
(0.814793 0.247395 0)
(0.75168 0.310432 0)
(0.678577 0.370212 0)
(0.589754 0.406541 0)
(0.47346 0.381662 0)
(0.299583 0.248732 0)
(0.149805 -0.0214962 0)
(0.0143256 -0.0195997 0)
(0.0465744 -0.0758141 0)
(0.0846132 -0.10183 0)
(0.121175 -0.111425 0)
(0.156477 -0.113099 0)
(0.190669 -0.111241 0)
(0.223904 -0.108122 0)
(0.256383 -0.104879 0)
(0.288297 -0.102046 0)
(0.319826 -0.0998327 0)
(0.351134 -0.098286 0)
(0.382371 -0.0973672 0)
(0.413662 -0.0969984 0)
(0.445112 -0.0970839 0)
(0.476798 -0.0975215 0)
(0.508775 -0.0982062 0)
(0.541067 -0.0990312 0)
(0.573673 -0.0998872 0)
(0.60656 -0.100661 0)
(0.639664 -0.101235 0)
(0.672888 -0.101482 0)
(0.706095 -0.101268 0)
(0.739112 -0.100449 0)
(0.771721 -0.0988689 0)
(0.803657 -0.0963588 0)
(0.834608 -0.0927347 0)
(0.864205 -0.0877946 0)
(0.892024 -0.0813134 0)
(0.917575 -0.0730363 0)
(0.940299 -0.0626682 0)
(0.959556 -0.0498605 0)
(0.974619 -0.0341944 0)
(0.98466 -0.015167 0)
(0.988745 0.00784274 0)
(0.985869 0.0355877 0)
(0.974985 0.0689409 0)
(0.955108 0.108836 0)
(0.925438 0.156138 0)
(0.885504 0.211373 0)
(0.835253 0.274161 0)
(0.774755 0.341961 0)
(0.703491 0.407543 0)
(0.616745 0.453552 0)
(0.503259 0.446261 0)
(0.335398 0.336836 0)
(0.166843 0.0836201 0)
(0.0144855 -0.0336045 0)
(0.0488775 -0.0938519 0)
(0.0889514 -0.11976 0)
(0.126681 -0.128624 0)
(0.162458 -0.129582 0)
(0.196693 -0.127147 0)
(0.229749 -0.123588 0)
(0.261964 -0.120024 0)
(0.293607 -0.11697 0)
(0.324896 -0.114625 0)
(0.35601 -0.113022 0)
(0.387099 -0.112111 0)
(0.418283 -0.111802 0)
(0.449661 -0.111989 0)
(0.481302 -0.112557 0)
(0.513254 -0.113389 0)
(0.545536 -0.114366 0)
(0.578143 -0.115365 0)
(0.611038 -0.116258 0)
(0.644158 -0.116912 0)
(0.677404 -0.117184 0)
(0.710642 -0.116923 0)
(0.743699 -0.115965 0)
(0.77636 -0.114132 0)
(0.808367 -0.111234 0)
(0.839412 -0.107063 0)
(0.869136 -0.10139 0)
(0.897125 -0.0939641 0)
(0.922905 -0.084498 0)
(0.945934 -0.0726625 0)
(0.965597 -0.0580708 0)
(0.981198 -0.0402617 0)
(0.991946 -0.0186851 0)
(0.996958 0.00732121 0)
(0.995284 0.0385346 0)
(0.985936 0.0758217 0)
(0.967983 0.120064 0)
(0.940632 0.17202 0)
(0.903303 0.232079 0)
(0.85561 0.299782 0)
(0.797044 0.37278 0)
(0.726322 0.444756 0)
(0.638847 0.500713 0)
(0.523966 0.51079 0)
(0.358243 0.426873 0)
(0.177104 0.198402 0)
(0.0145059 -0.0480155 0)
(0.0504135 -0.112765 0)
(0.0920275 -0.138367 0)
(0.130736 -0.146195 0)
(0.166988 -0.146204 0)
(0.20135 -0.143048 0)
(0.234336 -0.138977 0)
(0.266393 -0.135066 0)
(0.297856 -0.131794 0)
(0.328976 -0.12933 0)
(0.359949 -0.127688 0)
(0.390928 -0.126802 0)
(0.422034 -0.126569 0)
(0.453359 -0.12687 0)
(0.484969 -0.127579 0)
(0.516906 -0.128566 0)
(0.549187 -0.1297 0)
(0.581803 -0.130846 0)
(0.614718 -0.131863 0)
(0.647869 -0.132602 0)
(0.681156 -0.132904 0)
(0.714449 -0.132601 0)
(0.747578 -0.13151 0)
(0.780331 -0.129434 0)
(0.812456 -0.12616 0)
(0.843649 -0.121457 0)
(0.873563 -0.115072 0)
(0.901792 -0.106727 0)
(0.927877 -0.0961052 0)
(0.951294 -0.0828461 0)
(0.971453 -0.0665266 0)
(0.987684 -0.0466463 0)
(0.999236 -0.022613 0)
(1.00527 0.00627304 0)
(1.00489 0.0408112 0)
(0.99717 0.0818646 0)
(0.98121 0.130277 0)
(0.956209 0.18674 0)
(0.921457 0.251588 0)
(0.876239 0.324393 0)
(0.819484 0.403097 0)
(0.749138 0.48224 0)
(0.660329 0.548814 0)
(0.542523 0.576417 0)
(0.375898 0.518868 0)
(0.184179 0.319848 0)
(0.014508 -0.0627015 0)
(0.0514911 -0.132302 0)
(0.094201 -0.157486 0)
(0.133636 -0.164071 0)
(0.170267 -0.162962 0)
(0.204758 -0.158975 0)
(0.237726 -0.154331 0)
(0.269692 -0.150047 0)
(0.30104 -0.146551 0)
(0.332048 -0.143974 0)
(0.362925 -0.142304 0)
(0.393831 -0.141456 0)
(0.424885 -0.14131 0)
(0.456176 -0.141735 0)
(0.487768 -0.142592 0)
(0.519701 -0.143741 0)
(0.551991 -0.145039 0)
(0.584627 -0.146337 0)
(0.617575 -0.147483 0)
(0.650771 -0.148313 0)
(0.68412 -0.148653 0)
(0.717494 -0.148317 0)
(0.750725 -0.147103 0)
(0.783609 -0.144796 0)
(0.815896 -0.14116 0)
(0.847291 -0.135944 0)
(0.877452 -0.128871 0)
(0.905987 -0.119635 0)
(0.93245 -0.107895 0)
(0.956334 -0.0932583 0)
(0.97707 -0.0752694 0)
(0.994019 -0.0533916 0)
(1.00646 -0.0269947 0)
(1.01361 0.00465442 0)
(1.01462 0.0423754 0)
(1.00861 0.0870315 0)
(0.994725 0.139444 0)
(0.972148 0.200282 0)
(0.94005 0.269889 0)
(0.89743 0.347969 0)
(0.842738 0.432845 0)
(0.773229 0.519911 0)
(0.683588 0.597941 0)
(0.562857 0.643678 0)
(0.393742 0.613271 0)
(0.191275 0.447473 0)
(0.0145398 -0.0775939 0)
(0.0522836 -0.152271 0)
(0.0957107 -0.17696 0)
(0.135602 -0.182159 0)
(0.172467 -0.179818 0)
(0.207035 -0.174925 0)
(0.239989 -0.169667 0)
(0.271897 -0.164991 0)
(0.30317 -0.161265 0)
(0.334106 -0.158579 0)
(0.364923 -0.156889 0)
(0.395784 -0.156086 0)
(0.426807 -0.156035 0)
(0.458081 -0.156591 0)
(0.489669 -0.157603 0)
(0.521609 -0.158919 0)
(0.553916 -0.160386 0)
(0.586583 -0.161843 0)
(0.619575 -0.163124 0)
(0.652832 -0.164053 0)
(0.686262 -0.16444 0)
(0.71974 -0.164081 0)
(0.753104 -0.162759 0)
(0.786154 -0.160236 0)
(0.818645 -0.156258 0)
(0.850289 -0.150551 0)
(0.880754 -0.142815 0)
(0.909656 -0.132721 0)
(0.936562 -0.119901 0)
(0.960983 -0.103935 0)
(0.982372 -0.0843373 0)
(1.00012 -0.0605373 0)
(1.01354 -0.031871 0)
(1.02188 0.00242382 0)
(1.02436 0.0431852 0)
(1.02015 0.0912806 0)
(1.00844 0.147525 0)
(0.988401 0.212594 0)
(0.95912 0.286905 0)
(0.91938 0.370369 0)
(0.867268 0.461766 0)
(0.799467 0.557393 0)
(0.710183 0.647736 0)
(0.587513 0.712576 0)
(0.415831 0.71053 0)
(0.200973 0.582134 0)
(0.0146216 -0.0926552 0)
(0.0528879 -0.172523 0)
(0.0967094 -0.196642 0)
(0.136796 -0.200358 0)
(0.173726 -0.196718 0)
(0.208286 -0.190879 0)
(0.241197 -0.184984 0)
(0.273049 -0.179907 0)
(0.304266 -0.175952 0)
(0.335155 -0.17316 0)
(0.365936 -0.171455 0)
(0.39677 -0.170703 0)
(0.427779 -0.170753 0)
(0.459049 -0.171445 0)
(0.490643 -0.172616 0)
(0.522598 -0.174105 0)
(0.554931 -0.175746 0)
(0.587636 -0.177369 0)
(0.620683 -0.178793 0)
(0.654013 -0.17983 0)
(0.687541 -0.180275 0)
(0.721145 -0.179908 0)
(0.754669 -0.178492 0)
(0.787917 -0.175772 0)
(0.820651 -0.171473 0)
(0.85259 -0.165299 0)
(0.883408 -0.156929 0)
(0.912732 -0.146012 0)
(0.94014 -0.132153 0)
(0.965161 -0.114909 0)
(0.987269 -0.093764 0)
(1.00588 -0.0681186 0)
(1.02034 -0.0372785 0)
(1.02996 -0.000457043 0)
(1.03399 0.0432001 0)
(1.03168 0.0945669 0)
(1.02224 0.154463 0)
(1.00488 0.223599 0)
(0.978642 0.302507 0)
(0.94218 0.391361 0)
(0.893352 0.489469 0)
(0.828442 0.59409 0)
(0.741256 0.697485 0)
(0.618483 0.782606 0)
(0.445798 0.810885 0)
(0.215694 0.726316 0)
(0.0147731 -0.107869 0)
(0.0533594 -0.192929 0)
(0.0972929 -0.216399 0)
(0.137329 -0.218567 0)
(0.174152 -0.213598 0)
(0.208602 -0.206803 0)
(0.24142 -0.200272 0)
(0.273197 -0.194797 0)
(0.30436 -0.190617 0)
(0.335209 -0.187725 0)
(0.365964 -0.186009 0)
(0.396785 -0.185314 0)
(0.427788 -0.185469 0)
(0.459062 -0.186301 0)
(0.490666 -0.187636 0)
(0.522641 -0.189302 0)
(0.555005 -0.191123 0)
(0.587755 -0.192918 0)
(0.620863 -0.194495 0)
(0.654279 -0.195651 0)
(0.687918 -0.196167 0)
(0.721667 -0.195807 0)
(0.755374 -0.194316 0)
(0.788849 -0.191419 0)
(0.821861 -0.186823 0)
(0.854133 -0.18021 0)
(0.885348 -0.171238 0)
(0.91514 -0.159533 0)
(0.943103 -0.144679 0)
(0.968777 -0.126208 0)
(0.991659 -0.103579 0)
(1.01119 -0.076166 0)
(1.02676 -0.0432495 0)
(1.03771 -0.00402256 0)
(1.04337 0.0423819 0)
(1.04303 0.0968447 0)
(1.03597 0.160198 0)
(1.02145 0.233203 0)
(0.998515 0.316532 0)
(0.9658 0.410657 0)
(0.921093 0.515457 0)
(0.860501 0.629222 0)
(0.77767 0.746143 0)
(0.65759 0.852681 0)
(0.487795 0.914173 0)
(0.238632 0.883842 0)
(0.0150261 -0.12324 0)
(0.0537297 -0.213363 0)
(0.0975194 -0.236107 0)
(0.13728 -0.236687 0)
(0.173828 -0.230392 0)
(0.208061 -0.222661 0)
(0.240722 -0.215511 0)
(0.272393 -0.209654 0)
(0.303485 -0.205261 0)
(0.33429 -0.202278 0)
(0.365019 -0.200558 0)
(0.395827 -0.199924 0)
(0.426827 -0.200188 0)
(0.458104 -0.201164 0)
(0.48972 -0.202667 0)
(0.521716 -0.204515 0)
(0.554111 -0.206522 0)
(0.586908 -0.208496 0)
(0.620083 -0.210236 0)
(0.653589 -0.211523 0)
(0.687351 -0.212126 0)
(0.721259 -0.211791 0)
(0.755169 -0.210246 0)
(0.788896 -0.207197 0)
(0.822213 -0.20233 0)
(0.854852 -0.195307 0)
(0.886501 -0.185765 0)
(0.916804 -0.17331 0)
(0.945362 -0.157506 0)
(0.971735 -0.13786 0)
(0.995436 -0.113811 0)
(1.01593 -0.0847093 0)
(1.03266 -0.0498145 0)
(1.045 -0.0083049 0)
(1.05233 0.0406947 0)
(1.05403 0.0980699 0)
(1.04945 0.164667 0)
(1.03792 0.241306 0)
(1.01856 0.328804 0)
(0.990081 0.427939 0)
(0.950395 0.539171 0)
(0.895729 0.66186 0)
(0.819992 0.792314 0)
(0.706612 0.920936 0)
(0.547051 1.01961 0)
(0.273952 1.06268 0)
(0.0154151 -0.138772 0)
(0.0540151 -0.233723 0)
(0.0974186 -0.255658 0)
(0.136702 -0.254632 0)
(0.172819 -0.247038 0)
(0.20673 -0.238409 0)
(0.239167 -0.230675 0)
(0.270687 -0.224462 0)
(0.301682 -0.219875 0)
(0.332426 -0.216812 0)
(0.363118 -0.215098 0)
(0.393905 -0.214531 0)
(0.424895 -0.214909 0)
(0.456171 -0.216032 0)
(0.487793 -0.217707 0)
(0.519804 -0.219742 0)
(0.552228 -0.221942 0)
(0.585068 -0.224105 0)
(0.618309 -0.226018 0)
(0.651909 -0.227452 0)
(0.685799 -0.228158 0)
(0.719876 -0.227868 0)
(0.754001 -0.226292 0)
(0.787998 -0.223116 0)
(0.821644 -0.218007 0)
(0.854677 -0.210605 0)
(0.88679 -0.200529 0)
(0.917635 -0.187363 0)
(0.946823 -0.170652 0)
(0.973926 -0.149885 0)
(0.998479 -0.124479 0)
(1.01998 -0.0937665 0)
(1.03789 -0.0569919 0)
(1.05165 -0.0133239 0)
(1.0607 0.0381154 0)
(1.06449 0.0982114 0)
(1.06247 0.167822 0)
(1.05405 0.24782 0)
(1.0385 0.339157 0)
(1.01473 0.442893 0)
(0.980944 0.560028 0)
(0.933878 0.690949 0)
(0.868318 0.834177 0)
(0.767136 0.984325 0)
(0.630672 1.1257 0)
(0.331422 1.2652 0)
(0.0159218 -0.154445 0)
(0.0542099 -0.253992 0)
(0.0969938 -0.274983 0)
(0.135631 -0.272341 0)
(0.171182 -0.263485 0)
(0.204676 -0.254005 0)
(0.236821 -0.24573 0)
(0.268145 -0.239192 0)
(0.299009 -0.234432 0)
(0.329668 -0.231306 0)
(0.360306 -0.229607 0)
(0.391058 -0.229114 0)
(0.422026 -0.22961 0)
(0.45329 -0.230885 0)
(0.484909 -0.232736 0)
(0.516927 -0.234962 0)
(0.549371 -0.237362 0)
(0.58225 -0.239723 0)
(0.615552 -0.241821 0)
(0.649245 -0.243416 0)
(0.683265 -0.244244 0)
(0.717516 -0.244021 0)
(0.751868 -0.242437 0)
(0.786149 -0.239162 0)
(0.820142 -0.233839 0)
(0.85359 -0.226091 0)
(0.886191 -0.215515 0)
(0.917603 -0.201677 0)
(0.947445 -0.184104 0)
(0.975302 -0.162267 0)
(1.00073 -0.135568 0)
(1.02325 -0.103325 0)
(1.04236 -0.0647723 0)
(1.05756 -0.019075 0)
(1.06834 0.0346414 0)
(1.07425 0.0972549 0)
(1.07482 0.169625 0)
(1.06961 0.25266 0)
(1.05806 0.347418 0)
(1.03936 0.455177 0)
(1.01223 0.577362 0)
(0.974311 0.715192 0)
(0.921997 0.869121 0)
(0.8402 1.03763 0)
(0.741558 1.22309 0)
(0.399512 1.5221 0)
(-0.000849047 0.00154752 0)
(-0.024895 0.00832525 0)
(-0.0597509 0.00787516 0)
(-0.0818734 0.00486159 0)
(-0.0939276 0.00205712 0)
(-0.0975017 -6.38233e-05 0)
(-0.0945136 -0.00166217 0)
(-0.0874869 -0.00257561 0)
(-0.0779184 -0.0030933 0)
(-0.0669337 -0.00334069 0)
(-0.055327 -0.00340247 0)
(-0.0437068 -0.00332507 0)
(-0.0324957 -0.00314629 0)
(-0.022011 -0.00290009 0)
(-0.0124615 -0.00260777 0)
(-0.00396592 -0.00229497 0)
(0.00343012 -0.00198531 0)
(0.00972891 -0.0016798 0)
(0.0149663 -0.00138465 0)
(0.0191933 -0.00110205 0)
(0.0224617 -0.000836335 0)
(0.0248301 -0.000585811 0)
(0.0263595 -0.000353549 0)
(0.0271132 -0.000138067 0)
(0.0271496 6.24549e-05 0)
(0.0265169 0.00023936 0)
(0.0252779 0.000404271 0)
(0.0234959 0.000551647 0)
(0.0212252 0.000684495 0)
(0.0185192 0.000805407 0)
(0.0154319 0.000909358 0)
(0.0120324 0.000989941 0)
(0.00841337 0.00103926 0)
(0.004716 0.00104653 0)
(0.0010826 0.000986087 0)
(-0.00198091 0.000730941 0)
(-0.0040843 2.74874e-05 0)
(-0.00282112 -0.00143024 0)
(-0.0130181 0.00914358 0)
(-0.0393765 0.0196041 0)
(-0.0706549 0.0175321 0)
(-0.0901444 0.0110086 0)
(-0.100247 0.00495768 0)
(-0.102687 0.000180208 0)
(-0.0995589 -0.00313923 0)
(-0.0924471 -0.00528621 0)
(-0.0827924 -0.00657709 0)
(-0.0716712 -0.00724585 0)
(-0.0598793 -0.00745878 0)
(-0.0480138 -0.00733903 0)
(-0.0365068 -0.00697617 0)
(-0.0256765 -0.00644661 0)
(-0.0157426 -0.00580754 0)
(-0.00683581 -0.00511195 0)
(0.000975333 -0.00440621 0)
(0.00766684 -0.00371135 0)
(0.013265 -0.00304115 0)
(0.0178195 -0.00240559 0)
(0.0213795 -0.00180971 0)
(0.0240066 -0.00124973 0)
(0.0257654 -0.000729526 0)
(0.0267175 -0.000251699 0)
(0.0269249 0.000185049 0)
(0.0264546 0.000591543 0)
(0.0253667 0.000962033 0)
(0.0237218 0.00129215 0)
(0.0215822 0.00158639 0)
(0.0190122 0.0018473 0)
(0.0160782 0.00206793 0)
(0.0128545 0.0022344 0)
(0.0094339 0.00232691 0)
(0.00595878 0.00231397 0)
(0.00258238 0.0021249 0)
(-0.00023987 0.00156694 0)
(-0.00219436 0.000319046 0)
(-0.00239164 -0.00184045 0)
(-0.0198318 0.0218949 0)
(-0.0467024 0.0320736 0)
(-0.0744679 0.0273819 0)
(-0.0925853 0.017005 0)
(-0.102145 0.0074215 0)
(-0.104435 -0.000133409 0)
(-0.101248 -0.00541294 0)
(-0.0942078 -0.00890488 0)
(-0.0846464 -0.0110274 0)
(-0.0736193 -0.0121432 0)
(-0.0619128 -0.0125139 0)
(-0.0501029 -0.0123396 0)
(-0.0386156 -0.0117659 0)
(-0.0277602 -0.0109132 0)
(-0.0177561 -0.00987488 0)
(-0.00873991 -0.0087339 0)
(-0.000793323 -0.00756002 0)
(0.00604561 -0.00639829 0)
(0.011793 -0.0052698 0)
(0.0164915 -0.00419788 0)
(0.0201888 -0.00318913 0)
(0.022948 -0.00224191 0)
(0.0248355 -0.00136118 0)
(0.0259136 -0.000551251 0)
(0.0262472 0.000194171 0)
(0.0259039 0.000879809 0)
(0.0249493 0.00150094 0)
(0.0234503 0.00205395 0)
(0.0214735 0.00254203 0)
(0.0190885 0.00296754 0)
(0.016368 0.00332227 0)
(0.0133908 0.00358612 0)
(0.0102493 0.0037286 0)
(0.00707917 0.00369882 0)
(0.00402283 0.00339264 0)
(0.00143376 0.00258158 0)
(-0.000691434 0.00087014 0)
(-0.00162981 -0.00257844 0)
(-0.0229227 0.0365707 0)
(-0.0508446 0.0442901 0)
(-0.0769166 0.0367073 0)
(-0.0943342 0.0227994 0)
(-0.103442 0.00989216 0)
(-0.105495 -0.00031238 0)
(-0.102153 -0.00760253 0)
(-0.0950456 -0.0124399 0)
(-0.0854952 -0.0153937 0)
(-0.0745288 -0.0169581 0)
(-0.0629131 -0.0174927 0)
(-0.0511993 -0.0172739 0)
(-0.0397978 -0.016503 0)
(-0.029003 -0.0153427 0)
(-0.0190266 -0.0139217 0)
(-0.0100046 -0.0123504 0)
(-0.00202476 -0.0107196 0)
(0.00486762 -0.00909486 0)
(0.0106804 -0.00751279 0)
(0.0154491 -0.00600646 0)
(0.0192191 -0.00458649 0)
(0.0220539 -0.00325469 0)
(0.0240228 -0.00201612 0)
(0.0251893 -0.00087571 0)
(0.0256173 0.000172555 0)
(0.025377 0.00112886 0)
(0.0245395 0.00199298 0)
(0.0231739 0.00276086 0)
(0.0213489 0.00343366 0)
(0.0191364 0.00401212 0)
(0.0166126 0.004487 0)
(0.0138589 0.0048335 0)
(0.0109672 0.00501221 0)
(0.00806394 0.00495815 0)
(0.00527611 0.00454843 0)
(0.00288048 0.00354909 0)
(0.000738922 0.00151477 0)
(-0.000150048 -0.00307072 0)
(-0.0243699 0.0521242 0)
(-0.0535946 0.0564939 0)
(-0.0791772 0.0457657 0)
(-0.0963115 0.0283867 0)
(-0.104979 0.0122181 0)
(-0.106637 -0.000639985 0)
(-0.102954 -0.0098649 0)
(-0.0956038 -0.0160085 0)
(-0.0859235 -0.0197637 0)
(-0.0749213 -0.0217533 0)
(-0.063339 -0.022438 0)
(-0.0516991 -0.0221692 0)
(-0.0403878 -0.0212036 0)
(-0.0296791 -0.0197439 0)
(-0.019771 -0.0179507 0)
(-0.0107937 -0.0159601 0)
(-0.00283448 -0.0138826 0)
(0.00405885 -0.0118014 0)
(0.0098891 -0.00977016 0)
(0.0146857 -0.00783145 0)
(0.0184908 -0.00600202 0)
(0.0213671 -0.00428737 0)
(0.0233863 -0.00269409 0)
(0.0246139 -0.00122803 0)
(0.0251138 0.000114891 0)
(0.0249571 0.00133718 0)
(0.0242184 0.00243777 0)
(0.0229682 0.00341259 0)
(0.0212761 0.0042614 0)
(0.0192143 0.0049834 0)
(0.0168598 0.00556855 0)
(0.0142955 0.00598872 0)
(0.0116114 0.00619671 0)
(0.00892369 0.00611715 0)
(0.00634184 0.00561756 0)
(0.00407784 0.00447139 0)
(0.00197026 0.00220919 0)
(0.000868944 -0.00254735 0)
(-0.0253485 0.0683931 0)
(-0.056053 0.0689705 0)
(-0.0818938 0.0548182 0)
(-0.0989997 0.0338141 0)
(-0.107155 0.0143384 0)
(-0.108208 -0.00117375 0)
(-0.103946 -0.0122977 0)
(-0.0961446 -0.0196947 0)
(-0.0861662 -0.0241996 0)
(-0.0750066 -0.0265707 0)
(-0.0633765 -0.0273745 0)
(-0.0517645 -0.0270372 0)
(-0.0405247 -0.0258689 0)
(-0.0299046 -0.0241105 0)
(-0.020083 -0.0219517 0)
(-0.011179 -0.0195505 0)
(-0.00327448 -0.0170349 0)
(0.00358448 -0.0145043 0)
(0.00939845 -0.0120291 0)
(0.0141925 -0.00966196 0)
(0.018005 -0.00742713 0)
(0.0208973 -0.00533372 0)
(0.0229431 -0.00339044 0)
(0.0242102 -0.00160399 0)
(0.0247626 2.82665e-05 0)
(0.0246718 0.00151042 0)
(0.0240138 0.00284071 0)
(0.02286 0.00401507 0)
(0.0212797 0.00503235 0)
(0.0193445 0.00589078 0)
(0.0171311 0.00657925 0)
(0.0147211 0.00706721 0)
(0.0122015 0.00730158 0)
(0.00967676 0.00719954 0)
(0.00723784 0.00662649 0)
(0.00503875 0.00536946 0)
(0.0029181 0.00297154 0)
(0.00144489 -0.00174348 0)
(-0.0264634 0.0854396 0)
(-0.0590154 0.081915 0)
(-0.0855789 0.0640427 0)
(-0.10278 0.0391041 0)
(-0.110246 0.0161804 0)
(-0.110415 -0.00201499 0)
(-0.105292 -0.015003 0)
(-0.0967983 -0.0235843 0)
(-0.0863343 -0.0287662 0)
(-0.0748814 -0.031456 0)
(-0.0631113 -0.032331 0)
(-0.0514702 -0.0318935 0)
(-0.0402726 -0.0305047 0)
(-0.0297329 -0.0284405 0)
(-0.0200051 -0.025917 0)
(-0.0111922 -0.0231102 0)
(-0.00336651 -0.0201633 0)
(0.00343067 -0.0171906 0)
(0.00920084 -0.0142779 0)
(0.0139669 -0.0114876 0)
(0.0177638 -0.00885245 0)
(0.020651 -0.00638565 0)
(0.0227029 -0.00409743 0)
(0.0239898 -0.00199561 0)
(0.0245769 -7.90039e-05 0)
(0.0245347 0.00165639 0)
(0.023939 0.00320943 0)
(0.022862 0.00457657 0)
(0.0213724 0.00575632 0)
(0.0195402 0.00674626 0)
(0.0174399 0.00753365 0)
(0.0151509 0.00808589 0)
(0.0127548 0.0083466 0)
(0.0103438 0.00822921 0)
(0.00799018 0.00760193 0)
(0.00579877 0.00627097 0)
(0.00361654 0.00382559 0)
(0.00179349 -0.000714055 0)
(-0.0281317 0.103516 0)
(-0.0632127 0.0954995 0)
(-0.0907505 0.0735406 0)
(-0.108028 0.0442215 0)
(-0.114493 0.0176306 0)
(-0.113412 -0.00329646 0)
(-0.10709 -0.0180992 0)
(-0.0976323 -0.0277726 0)
(-0.0864792 -0.0335342 0)
(-0.0745882 -0.0364585 0)
(-0.0625801 -0.0373399 0)
(-0.0508484 -0.0367571 0)
(-0.0396587 -0.0351197 0)
(-0.0291863 -0.0327348 0)
(-0.0195543 -0.0298414 0)
(-0.0108447 -0.0266305 0)
(-0.00311696 -0.0232576 0)
(0.00359523 -0.0198496 0)
(0.00929723 -0.016506 0)
(0.0140119 -0.0132989 0)
(0.0177719 -0.0102691 0)
(0.0206339 -0.00743444 0)
(0.0226731 -0.00480678 0)
(0.0239617 -0.00239521 0)
(0.0245653 -0.000199793 0)
(0.0245536 0.00178259 0)
(0.0240018 0.00355232 0)
(0.0229822 0.00510664 0)
(0.0215623 0.00644387 0)
(0.0198099 0.00756101 0)
(0.0177962 0.00844434 0)
(0.0155968 0.00906017 0)
(0.013287 0.00935013 0)
(0.0109456 0.00922743 0)
(0.00862766 0.00856681 0)
(0.00639843 0.00719747 0)
(0.00411622 0.0047716 0)
(0.00199167 0.000487938 0)
(-0.0307965 0.123131 0)
(-0.0694898 0.109918 0)
(-0.0980129 0.0833418 0)
(-0.115156 0.0490574 0)
(-0.120128 0.0185202 0)
(-0.11732 -0.00518547 0)
(-0.109398 -0.0217254 0)
(-0.0986748 -0.0323654 0)
(-0.0866155 -0.0385799 0)
(-0.0741361 -0.0416309 0)
(-0.0617898 -0.0424361 0)
(-0.0499048 -0.0416488 0)
(-0.038688 -0.0397239 0)
(-0.028268 -0.0369956 0)
(-0.0187317 -0.0337217 0)
(-0.0101352 -0.0301047 0)
(-0.00252212 -0.026309 0)
(0.00408376 -0.022472 0)
(0.00969417 -0.0187041 0)
(0.0143347 -0.0150869 0)
(0.0180365 -0.0116686 0)
(0.0208541 -0.00847197 0)
(0.0228617 -0.00551076 0)
(0.0241331 -0.00279541 0)
(0.0247348 -0.00032705 0)
(0.0247353 0.00189698 0)
(0.0242087 0.00387809 0)
(0.0232266 0.00561427 0)
(0.0218554 0.00710436 0)
(0.0201603 0.00834529 0)
(0.0182083 0.00932315 0)
(0.0160696 0.0100039 0)
(0.0138121 0.0103285 0)
(0.011502 0.0102126 0)
(0.00917852 0.00953981 0)
(0.00687696 0.00816398 0)
(0.00446878 0.00580276 0)
(0.00209001 0.00180428 0)
(-0.0350714 0.145134 0)
(-0.078958 0.125386 0)
(-0.1081 0.0933783 0)
(-0.124611 0.0534051 0)
(-0.127369 0.018611 0)
(-0.122227 -0.00788944 0)
(-0.112242 -0.0260412 0)
(-0.0999221 -0.037478 0)
(-0.0867295 -0.0439835 0)
(-0.0735097 -0.0470267 0)
(-0.0607266 -0.0476537 0)
(-0.0486273 -0.0465889 0)
(-0.0373494 -0.0443275 0)
(-0.0269678 -0.0412257 0)
(-0.0175272 -0.0375556 0)
(-0.00905349 -0.0335266 0)
(-0.00157116 -0.0293093 0)
(0.0049077 -0.0250484 0)
(0.0104035 -0.0208629 0)
(0.0149465 -0.0168422 0)
(0.0185683 -0.013042 0)
(0.0213212 -0.00949003 0)
(0.0232779 -0.00620178 0)
(0.024513 -0.00318841 0)
(0.0250935 -0.000452623 0)
(0.0250869 0.00200772 0)
(0.0245659 0.00419468 0)
(0.0236011 0.00610779 0)
(0.0222578 0.00774705 0)
(0.020598 0.00910958 0)
(0.0186838 0.0101817 0)
(0.0165791 0.0109297 0)
(0.0143435 0.011296 0)
(0.0120315 0.0111998 0)
(0.00966884 0.0105356 0)
(0.00726957 0.0091806 0)
(0.00472037 0.00691241 0)
(0.0021265 0.00319361 0)
(-0.0418851 0.170848 0)
(-0.0931381 0.142094 0)
(-0.121883 0.103417 0)
(-0.136849 0.0569241 0)
(-0.136398 0.0175815 0)
(-0.12818 -0.0116588 0)
(-0.115608 -0.0312259 0)
(-0.10134 -0.0432326 0)
(-0.0867831 -0.049826 0)
(-0.0726738 -0.0526985 0)
(-0.0593599 -0.0530254 0)
(-0.0469897 -0.0515963 0)
(-0.0356205 -0.0489398 0)
(-0.0252656 -0.0454276 0)
(-0.0159227 -0.0413404 0)
(-0.00758216 -0.0368903 0)
(-0.000247321 -0.0322502 0)
(0.00608346 -0.0275692 0)
(0.0114411 -0.0229723 0)
(0.0158627 -0.0185554 0)
(0.0193815 -0.0143801 0)
(0.0220481 -0.0104793 0)
(0.0239336 -0.00687078 0)
(0.0251123 -0.00356585 0)
(0.0256513 -0.000568677 0)
(0.0256172 0.00212266 0)
(0.0250813 0.00451061 0)
(0.0241134 0.0065964 0)
(0.0227769 0.00838147 0)
(0.0211305 0.00986377 0)
(0.0192308 0.0110306 0)
(0.0171347 0.0118494 0)
(0.0148937 0.012265 0)
(0.0125512 0.0122019 0)
(0.010122 0.0115655 0)
(0.00760641 0.010254 0)
(0.00490832 0.008095 0)
(0.00213004 0.00462878 0)
(-0.0526754 0.202307 0)
(-0.114077 0.160099 0)
(-0.140323 0.112954 0)
(-0.152262 0.0591006 0)
(-0.147317 0.0150182 0)
(-0.135156 -0.0167839 0)
(-0.119435 -0.0374727 0)
(-0.10286 -0.0497549 0)
(-0.0867155 -0.0561868 0)
(-0.0715766 -0.0586963 0)
(-0.0576468 -0.0585813 0)
(-0.0449563 -0.0566886 0)
(-0.0334706 -0.0535691 0)
(-0.0231348 -0.0496032 0)
(-0.0138939 -0.0450737 0)
(-0.00569917 -0.0401897 0)
(0.00147012 -0.0351232 0)
(0.00763103 -0.0300245 0)
(0.0128264 -0.0250217 0)
(0.0171016 -0.0202156 0)
(0.0204932 -0.0156725 0)
(0.0230506 -0.0114299 0)
(0.0248431 -0.00750823 0)
(0.0259439 -0.00391878 0)
(0.0264201 -0.000666369 0)
(0.0263374 0.00225064 0)
(0.0257655 0.00483494 0)
(0.0247729 0.00708939 0)
(0.0234217 0.00901697 0)
(0.0217665 0.0106175 0)
(0.0198583 0.0118801 0)
(0.0177467 0.012774 0)
(0.0154751 0.0132472 0)
(0.0130769 0.01323 0)
(0.0105587 0.0126384 0)
(0.00791264 0.0113886 0)
(0.00506131 0.00934647 0)
(0.00212089 0.00609507 0)
(-0.069673 0.242393 0)
(-0.1444 0.179251 0)
(-0.164355 0.121094 0)
(-0.171076 0.0592212 0)
(-0.160091 0.0104249 0)
(-0.143044 -0.0235813 0)
(-0.123608 -0.0449788 0)
(-0.104386 -0.057167 0)
(-0.0864456 -0.0631407 0)
(-0.0701532 -0.0650658 0)
(-0.0555352 -0.0643482 0)
(-0.0424849 -0.0618798 0)
(-0.0308643 -0.0582213 0)
(-0.0205448 -0.0537531 0)
(-0.0114137 -0.0487521 0)
(-0.00337974 -0.0434186 0)
(0.00360421 -0.0379196 0)
(0.00957255 -0.0324039 0)
(0.0145809 -0.0270004 0)
(0.0186841 -0.0218121 0)
(0.0219231 -0.016909 0)
(0.0243468 -0.0123322 0)
(0.0260228 -0.00810467 0)
(0.0270231 -0.00423786 0)
(0.0274142 -0.000736448 0)
(0.0272606 0.00240056 0)
(0.0266306 0.00517614 0)