/*--------------------------------*- C++ -*----------------------------------*\
  =========                 |
  \\      /  F ield         | OpenFOAM: The Open Source CFD Toolbox
   \\    /   O peration     | Website:  https://openfoam.org
    \\  /    A nd           | Version:  7
     \\/     M anipulation  |
\*---------------------------------------------------------------------------*/
FoamFile
{
    version     2.0;
    format      ascii;
    class       surfaceScalarField;
    location    "0.4";
    object      alphaPhi0.water;
}
// * * * * * * * * * * * * * * * * * * * * * * * * * * * * * * * * * * * * * //

dimensions      [0 3 -1 0 0 0 0];

internalField   nonuniform List<scalar> 
17936
(
-1.84115e-06
1.84115e-06
-2.52782e-06
6.86671e-07
-2.08101e-06
-4.46811e-07
-1.09223e-06
-9.88773e-07
1.18467e-07
-1.2107e-06
1.39872e-06
-1.28025e-06
2.6774e-06
-1.27868e-06
3.91637e-06
-1.23897e-06
5.09961e-06
-1.18324e-06
6.22278e-06
-1.12318e-06
7.28786e-06
-1.06508e-06
8.29997e-06
-1.01211e-06
9.26549e-06
-9.65519e-07
1.01909e-05
-9.25366e-07
1.10819e-05
-8.91071e-07
1.19436e-05
-8.61704e-07
1.27798e-05
-8.36164e-07
1.35931e-05
-8.13275e-07
1.43849e-05
-7.91842e-07
1.51556e-05
-7.7066e-07
1.59041e-05
-7.48507e-07
1.66282e-05
-7.24126e-07
1.73244e-05
-6.96187e-07
1.79876e-05
-6.63253e-07
1.86114e-05
-6.23725e-07
1.91871e-05
-5.75772e-07
1.97044e-05
-5.1724e-07
2.01498e-05
-4.4547e-07
2.05067e-05
-3.56907e-07
2.07528e-05
-2.46093e-07
2.08525e-05
-9.96775e-08
2.07457e-05
1.06826e-07
2.03683e-05
3.77445e-07
1.96615e-05
7.06733e-07
1.85512e-05
1.1103e-06
1.69509e-05
1.6003e-06
1.47742e-05
2.17677e-06
1.1965e-05
2.80917e-06
8.54579e-06
3.41919e-06
4.66364e-06
3.88215e-06
5.72727e-07
4.09092e-06
-3.79415e-06
4.17269e-06
-7.86021e-06
3.82815e-06
-9.60089e-06
1.74026e-06
-6.93285e-06
-2.67118e-06
-6.94067e-06
-1.45339e-06
3.29454e-06
-1.48875e-06
7.2203e-07
-9.11055e-07
-1.02451e-06
2.74686e-08
-1.9273e-06
1.15274e-06
-2.33597e-06
2.36517e-06
-2.49268e-06
3.59286e-06
-2.50637e-06
4.79869e-06
-2.4448e-06
5.96387e-06
-2.34841e-06
7.08109e-06
-2.2404e-06
8.14975e-06
-2.13374e-06
9.17279e-06
-2.03515e-06
1.01547e-05
-1.94745e-06
1.11005e-05
-1.87114e-06
1.20148e-05
-1.80537e-06
1.29016e-05
-1.7485e-06
1.3764e-05
-1.69854e-06
1.4604e-05
-1.65328e-06
1.54226e-05
-1.61046e-06
1.62197e-05
-1.56775e-06
1.69939e-05
-1.52277e-06
1.77429e-05
-1.47307e-06
1.84627e-05
-1.41604e-06
1.91483e-05
-1.34885e-06
1.97929e-05
-1.26834e-06
2.03881e-05
-1.1709e-06
2.09231e-05
-1.0523e-06
2.1385e-05
-9.07384e-07
2.17577e-05
-7.29559e-07
2.20215e-05
-5.09936e-07
2.21575e-05
-2.35611e-07
2.21495e-05
1.14793e-07
2.19641e-05
5.62834e-07
2.15439e-05
1.12694e-06
2.08224e-05
1.83181e-06
1.97175e-05
2.70516e-06
1.81284e-05
3.76593e-06
1.59394e-05
4.99811e-06
1.30469e-05
6.31178e-06
9.4198e-06
7.5092e-06
5.15131e-06
8.3594e-06
5.77637e-07
8.83839e-06
-3.47933e-06
7.42201e-06
-5.84381e-06
4.10448e-06
-5.45836e-06
-3.05672e-06
-1.23991e-05
-8.80577e-07
4.17512e-06
-6.92342e-07
5.33795e-07
-7.72378e-08
-1.63961e-06
8.1403e-07
-2.81856e-06
1.88308e-06
-3.40502e-06
3.03312e-06
-3.64273e-06
4.20543e-06
-3.67868e-06
5.36541e-06
-3.60478e-06
6.49451e-06
-3.47751e-06
7.58459e-06
-3.33048e-06
8.63375e-06
-3.1829e-06
9.64355e-06
-3.04495e-06
1.06173e-05
-2.92115e-06
1.15587e-05
-2.81258e-06
1.24716e-05
-2.71826e-06
1.33591e-05
-2.63603e-06
1.42237e-05
-2.56313e-06
1.50669e-05
-2.49647e-06
1.58892e-05
-2.43279e-06
1.66902e-05
-2.36873e-06
1.74683e-05
-2.30084e-06
1.82207e-05
-2.22553e-06
1.89436e-05
-2.13896e-06
1.96318e-05
-2.03698e-06
2.02784e-05
-1.91494e-06
2.0875e-05
-1.76755e-06
2.14113e-05
-1.5886e-06
2.18746e-05
-1.37064e-06
2.22494e-05
-1.10441e-06
2.25175e-05
-7.78004e-07
2.26579e-05
-3.7602e-07
2.26493e-05
1.23441e-07
2.24644e-05
7.47728e-07
2.20653e-05
1.52603e-06
2.14058e-05
2.4913e-06
2.04318e-05
3.67912e-06
1.90806e-05
5.11715e-06
1.72788e-05
6.79995e-06
1.4945e-05
8.64557e-06
1.20103e-05
1.04439e-05
8.50211e-06
1.18676e-05
4.70021e-06
1.26422e-05
1.00962e-06
1.10544e-05
-1.86843e-06
6.62972e-06
-3.12475e-06
-1.81236e-06
-1.55235e-05
-3.53701e-07
4.52882e-06
-4.31713e-08
2.23265e-07
5.94313e-07
-2.2771e-06
1.47345e-06
-3.6977e-06
2.49951e-06
-4.43108e-06
3.59865e-06
-4.74187e-06
4.72127e-06
-4.80129e-06
5.83692e-06
-4.72043e-06
6.92867e-06
-4.56926e-06
7.98851e-06
-4.39033e-06
9.01397e-06
-4.20836e-06
1.00057e-05
-4.0367e-06
1.0966e-05
-3.88148e-06
1.18978e-05
-3.74439e-06
1.2804e-05
-3.62443e-06
1.3687e-05
-3.51905e-06
1.45487e-05
-3.42481e-06
1.53901e-05
-3.33783e-06
1.62113e-05
-3.25397e-06
1.70115e-05
-3.16893e-06
1.77889e-05
-3.07824e-06
1.85406e-05
-2.97725e-06
1.92626e-05
-2.86096e-06
1.99495e-05
-2.72394e-06
2.05948e-05
-2.56015e-06
2.11899e-05
-2.36269e-06
2.17248e-05
-2.12353e-06
2.21873e-05
-1.83311e-06
2.25626e-05
-1.47974e-06
2.28335e-05
-1.04889e-06
2.298e-05
-5.22474e-07
2.29801e-05
1.23311e-07
2.28091e-05
9.18711e-07
2.24371e-05
1.89805e-06
2.18293e-05
3.09907e-06
2.09479e-05
4.56057e-06
1.97527e-05
6.31228e-06
1.82011e-05
8.35154e-06
1.62451e-05
1.06016e-05
1.38336e-05
1.28554e-05
1.09665e-05
1.47347e-05
7.81293e-06
1.57957e-05
4.29819e-06
1.45146e-05
1.38326e-06
9.40722e-06
-5.12061e-07
1.74327e-07
-1.60351e-05
8.56552e-08
4.44316e-06
4.80563e-07
-1.71642e-07
1.16552e-06
-2.96206e-06
2.04421e-06
-4.57639e-06
3.04266e-06
-5.42954e-06
4.10183e-06
-5.80104e-06
5.18145e-06
-5.88091e-06
6.25635e-06
-5.79532e-06
7.31215e-06
-5.62506e-06
8.34174e-06
-5.41992e-06
9.34259e-06
-5.20921e-06
1.03148e-05
-5.00894e-06
1.126e-05
-4.82667e-06
1.21803e-05
-4.66465e-06
1.30777e-05
-4.5219e-06
1.39542e-05
-4.39554e-06
1.4811e-05
-4.28159e-06
1.56486e-05
-4.17545e-06
1.64668e-05
-4.07217e-06
1.72645e-05
-3.9666e-06
1.80396e-05
-3.85334e-06
1.87891e-05
-3.72672e-06
1.95088e-05
-3.58067e-06
2.01934e-05
-3.40856e-06
2.08363e-05
-3.20302e-06
2.14292e-05
-2.95565e-06
2.19624e-05
-2.65673e-06
2.24241e-05
-2.29476e-06
2.28003e-05
-1.85592e-06
2.30748e-05
-1.32339e-06
2.3229e-05
-6.76677e-07
2.32423e-05
1.09991e-07
2.30924e-05
1.0686e-06
2.27546e-05
2.23589e-06
2.2202e-05
3.65165e-06
2.14074e-05
5.35515e-06
2.03447e-05
7.37497e-06
1.89888e-05
9.7075e-06
1.7312e-05
1.22783e-05
1.52804e-05
1.4887e-05
1.28747e-05
1.71404e-05
1.01865e-05
1.84839e-05
7.05821e-06
1.77317e-05
3.92665e-06
1.24014e-05
1.43018e-06
2.90917e-06
-1.4598e-05
3.97485e-07
4.04568e-06
9.05765e-07
-6.79922e-07
1.64569e-06
-3.70198e-06
2.53873e-06
-5.46943e-06
3.52259e-06
-6.4134e-06
4.55152e-06
-6.82997e-06
5.59481e-06
-6.92421e-06
6.63322e-06
-6.83373e-06
7.65559e-06
-6.64743e-06
8.65622e-06
-6.42055e-06
9.63291e-06
-6.18589e-06
1.05855e-05
-5.96157e-06
1.15151e-05
-5.75624e-06
1.24231e-05
-5.57265e-06
1.3311e-05
-5.40982e-06
1.41801e-05
-5.2646e-06
1.5031e-05
-5.13251e-06
1.58639e-05
-5.00835e-06
1.66782e-05
-4.88644e-06
1.74724e-05
-4.76085e-06
1.82444e-05
-4.62531e-06
1.89909e-05
-4.47322e-06
1.97077e-05
-4.2975e-06
2.03895e-05
-4.09039e-06
2.10298e-05
-3.84328e-06
2.16205e-05
-3.54638e-06
2.21522e-05
-3.18841e-06
2.26136e-05
-2.75615e-06
2.29916e-05
-2.23389e-06
2.3271e-05
-1.60283e-06
2.34348e-05
-8.40495e-07
2.34644e-05
8.04833e-08
2.33398e-05
1.19313e-06
2.30407e-05
2.53505e-06
2.2546e-05
4.14633e-06
2.1836e-05
6.06514e-06
2.08933e-05
8.3177e-06
1.97024e-05
1.08984e-05
1.8246e-05
1.37347e-05
1.64979e-05
1.66352e-05
1.44245e-05
1.92138e-05
1.20456e-05
2.08627e-05
9.26821e-06
2.05091e-05
5.94769e-06
1.60969e-05
2.97167e-06
6.29381e-06
-1.16208e-05
5.80782e-07
3.4649e-06
1.23039e-06
-1.32953e-06
2.0434e-06
-4.51499e-06
2.96353e-06
-6.38956e-06
3.94331e-06
-7.39318e-06
4.95026e-06
-7.83692e-06
5.96342e-06
-7.93737e-06
6.96978e-06
-7.84009e-06
7.96175e-06
-7.6394e-06
8.93539e-06
-7.39419e-06
9.88909e-06
-7.13959e-06
1.08227e-05
-6.89517e-06
1.17368e-05
-6.67039e-06
1.26325e-05
-6.46828e-06
1.35105e-05
-6.28788e-06
1.43717e-05
-6.12577e-06
1.52162e-05
-5.97706e-06
1.60439e-05
-5.83597e-06
1.68536e-05
-5.69621e-06
1.76439e-05
-5.5511e-06
1.84122e-05
-5.39362e-06
1.91553e-05
-5.21629e-06
1.98689e-05
-5.01109e-06
2.05477e-05
-4.76921e-06
2.11853e-05
-4.48089e-06
2.1774e-05
-4.13505e-06
2.23046e-05
-3.71901e-06
2.27664e-05
-3.218e-06
2.31472e-05
-2.61468e-06
2.3433e-05
-1.8886e-06
2.36082e-05
-1.01573e-06
2.36563e-05
3.24232e-08
2.356e-05
1.28935e-06
2.33025e-05
2.79259e-06
2.28674e-05
4.58143e-06
2.22403e-05
6.69226e-06
2.14092e-05
9.14878e-06
2.03637e-05
1.19439e-05
1.90903e-05
1.50081e-05
1.75637e-05
1.81618e-05
1.57387e-05
2.10389e-05
1.35788e-05
2.30226e-05
1.10348e-05
2.30532e-05
7.89529e-06
1.94899e-05
4.18131e-06
1.01069e-05
-7.44041e-06
6.84942e-07
2.77995e-06
1.47482e-06
-2.11941e-06
2.36992e-06
-5.41009e-06
3.32523e-06
-7.34487e-06
4.30832e-06
-8.37627e-06
5.29978e-06
-8.82838e-06
6.2882e-06
-8.92578e-06
7.26678e-06
-8.81867e-06
8.23157e-06
-8.6042e-06
9.18051e-06
-8.34313e-06
1.01128e-05
-8.07186e-06
1.10283e-05
-7.81072e-06
1.19275e-05
-7.56961e-06
1.2811e-05
-7.35173e-06
1.36791e-05
-7.15603e-06
1.45322e-05
-6.97884e-06
1.537e-05
-6.81489e-06
1.6192e-05
-6.65791e-06
1.69968e-05
-6.50104e-06
1.77826e-05
-6.33695e-06
1.85469e-05
-6.15788e-06
1.92862e-05
-5.9556e-06
1.99963e-05
-5.72118e-06
2.0672e-05
-5.44488e-06
2.13069e-05
-5.11585e-06
2.18937e-05
-4.72186e-06
2.24237e-05
-4.24895e-06
2.28867e-05
-3.68099e-06
2.32713e-05
-2.99926e-06
2.35647e-05
-2.18198e-06
2.37529e-05
-1.20397e-06
2.38214e-05
-3.60888e-08
2.37556e-05
1.35512e-06
2.35417e-05
3.00652e-06
2.31671e-05
4.95602e-06
2.26214e-05
7.238e-06
2.1896e-05
9.87413e-06
2.09828e-05
1.2857e-05
1.98686e-05
1.61224e-05
1.85251e-05
1.95053e-05
1.68963e-05
2.26676e-05
1.49044e-05
2.50145e-05
1.24324e-05
2.55252e-05
9.25686e-06
2.26653e-05
5.09822e-06
1.42657e-05
-2.34368e-06
7.50709e-07
2.02925e-06
1.66401e-06
-3.03271e-06
2.63926e-06
-6.38534e-06
3.63188e-06
-8.33748e-06
4.62214e-06
-9.36652e-06
5.6026e-06
-9.80885e-06
6.57066e-06
-9.89384e-06
7.52528e-06
-9.77329e-06
8.46599e-06
-9.54491e-06
9.39259e-06
-9.26972e-06
1.03051e-05
-8.98436e-06
1.12037e-05
-8.70931e-06
1.20886e-05
-8.45457e-06
1.29602e-05
-8.2233e-06
1.38185e-05
-8.0143e-06
1.46633e-05
-7.82365e-06
1.54941e-05
-7.64572e-06
1.631e-05
-7.47381e-06
1.71095e-05
-7.30052e-06
1.78905e-05
-7.11795e-06
1.86503e-05
-6.91769e-06
1.93855e-05
-6.69078e-06
2.00918e-05
-6.42751e-06
2.07642e-05
-6.11724e-06
2.13965e-05
-5.74815e-06
2.19816e-05
-5.30696e-06
2.25112e-05
-4.77859e-06
2.2976e-05
-4.14574e-06
2.33652e-05
-3.38851e-06
2.36673e-05
-2.4841e-06
2.38699e-05
-1.40656e-06
2.39603e-05
-1.26533e-07
2.39265e-05
1.38895e-06
2.37574e-05
3.17563e-06
2.34437e-05
5.26972e-06
2.2978e-05
7.70371e-06
2.23541e-05
1.0498e-05
2.15647e-05
1.36465e-05
2.05951e-05
1.7092e-05
1.94127e-05
2.06876e-05
1.79508e-05
2.41295e-05
1.60982e-05
2.68671e-05
1.36761e-05
2.79473e-05
1.03888e-05
2.59526e-05
5.85564e-06
1.87989e-05
3.51033e-06
8.02983e-07
1.22626e-06
1.81905e-06
-4.04879e-06
2.86526e-06
-7.43155e-06
3.89226e-06
-9.36448e-06
4.89036e-06
-1.03646e-05
5.86238e-06
-1.07809e-05
6.81333e-06
-1.08448e-05
7.7472e-06
-1.07072e-05
8.66659e-06
-1.04643e-05
9.57302e-06
-1.01762e-05
1.04674e-05
-9.87869e-06
1.13501e-05
-9.59203e-06
1.22214e-05
-9.3259e-06
1.30814e-05
-9.08326e-06
1.39298e-05
-8.86271e-06
1.47662e-05
-8.66003e-06
1.55897e-05
-8.46925e-06
1.63991e-05
-8.28326e-06
1.71928e-05
-8.0942e-06
1.79685e-05
-7.89363e-06
1.87234e-05
-7.67258e-06
1.9454e-05
-7.42141e-06
2.01562e-05
-7.12971e-06
2.0825e-05
-6.78602e-06
2.14545e-05
-6.37765e-06
2.20379e-05
-5.89039e-06
2.25675e-05
-5.30816e-06
2.30344e-05
-4.61267e-06
2.3429e-05
-3.78308e-06
2.37407e-05
-2.79581e-06
2.39587e-05
-1.62449e-06
2.40721e-05
-2.39961e-07
2.40712e-05
1.38987e-06
2.39475e-05
3.29928e-06
2.36946e-05
5.5226e-06
2.33077e-05
8.09066e-06
2.27823e-05
1.10234e-05
2.21115e-05
1.43173e-05
2.12789e-05
1.79246e-05
2.02474e-05
2.17191e-05
1.89402e-05
2.54368e-05
1.7219e-05
2.85883e-05
1.48497e-05
3.03167e-05
1.14584e-05
2.93439e-05
6.59319e-06
2.36642e-05
1.01019e-05
8.53485e-07
3.72778e-07
1.95469e-06
-5.14999e-06
3.05963e-06
-8.53649e-06
4.11489e-06
-1.04197e-05
5.11916e-06
-1.13689e-05
6.0837e-06
-1.17454e-05
7.01972e-06
-1.17808e-05
7.93533e-06
-1.16228e-05
8.83568e-06
-1.13646e-05
9.72379e-06
-1.10643e-05
1.06013e-05
-1.07562e-05
1.1469e-05
-1.04597e-05
1.23272e-05
-1.01841e-05
1.31758e-05
-9.9318e-06
1.40142e-05
-9.70118e-06
1.48419e-05
-9.4877e-06
1.56577e-05
-9.28505e-06
1.64602e-05
-9.08575e-06
1.72475e-05
-8.88151e-06
1.80173e-05
-8.66341e-06
1.87666e-05
-8.42196e-06
1.94922e-05
-8.14696e-06
2.01898e-05
-7.82731e-06
2.08546e-05
-7.45086e-06
2.14811e-05
-7.00412e-06
2.20628e-05
-6.47204e-06
2.25923e-05
-5.83773e-06
2.30617e-05
-5.08205e-06
2.3462e-05
-4.18342e-06
2.37839e-05
-3.1177e-06
2.40179e-05
-1.85844e-06
2.41549e-05
-3.77001e-07
2.41873e-05
1.35744e-06
2.41093e-05
3.37736e-06
2.39167e-05
5.71512e-06
2.36073e-05
8.40009e-06
2.31783e-05
1.14524e-05
2.26233e-05
1.48723e-05
2.19251e-05
1.86228e-05
2.10431e-05
2.26011e-05
1.98926e-05
2.65872e-05
1.8314e-05
3.01669e-05
1.60254e-05
3.26052e-05
1.25737e-05
3.27955e-05
7.40929e-06
2.88286e-05
1.75096e-05
9.07867e-07
-5.35089e-07
2.08013e-06
-6.32225e-06
3.23122e-06
-9.68758e-06
4.30732e-06
-1.14958e-05
5.31478e-06
-1.23763e-05
6.27172e-06
-1.27024e-05
7.19409e-06
-1.27032e-05
8.09319e-06
-1.25219e-05
8.97621e-06
-1.22477e-05
9.8474e-06
-1.19355e-05
1.07091e-05
-1.16179e-05
1.15625e-05
-1.13131e-05
1.24078e-05
-1.10294e-05
1.32449e-05
-1.07689e-05
1.40731e-05
-1.05294e-05
1.48916e-05
-1.03062e-05
1.56991e-05
-1.00926e-05
1.6494e-05
-9.88062e-06
1.72742e-05
-9.66173e-06
1.80374e-05
-9.42655e-06
1.87805e-05
-9.16512e-06
1.95003e-05
-8.86672e-06
2.01927e-05
-8.51969e-06
2.0853e-05
-8.11121e-06
2.1476e-05
-7.6271e-06
2.20556e-05
-7.05162e-06
2.2585e-05
-6.36715e-06
2.30568e-05
-5.5539e-06
2.34631e-05
-4.58971e-06
2.37955e-05
-3.45008e-06
2.40458e-05
-2.10871e-06
2.42066e-05
-5.37864e-07
2.42724e-05
1.29168e-06
2.42395e-05
3.41027e-06
2.41065e-05
5.84814e-06
2.38733e-05
8.63331e-06
2.35391e-05
1.17865e-05
2.30988e-05
1.53126e-05
2.25355e-05
1.91862e-05
2.18078e-05
2.33288e-05
2.08271e-05
2.7568e-05
1.94198e-05
3.15742e-05
1.72661e-05
3.4759e-05
1.38328e-05
3.62288e-05
8.41186e-06
3.42496e-05
2.59203e-05
9.68388e-07
-1.50348e-06
2.20048e-06
-7.55435e-06
3.38622e-06
-1.08733e-05
4.47588e-06
-1.25855e-05
5.48321e-06
-1.33837e-05
6.43178e-06
-1.36509e-05
7.3411e-06
-1.36125e-05
8.22478e-06
-1.34055e-05
9.09157e-06
-1.31145e-05
9.94676e-06
-1.27907e-05
1.07933e-05
-1.24645e-05
1.16326e-05
-1.21524e-05
1.2465e-05
-1.18618e-05
1.32903e-05
-1.15942e-05
1.41079e-05
-1.1347e-05
1.49167e-05
-1.11149e-05
1.57151e-05
-1.0891e-05
1.65015e-05
-1.0667e-05
1.72738e-05
-1.0434e-05
1.80294e-05
-1.01821e-05
1.87654e-05
-9.90115e-06
1.94785e-05
-9.57983e-06
2.01649e-05
-9.20602e-06
2.082e-05
-8.76633e-06
2.14389e-05
-8.24598e-06
2.20158e-05
-7.62861e-06
2.25448e-05
-6.89605e-06
2.30189e-05
-6.02801e-06
2.3431e-05
-5.00186e-06
2.37739e-05
-3.79295e-06
2.40405e-05
-2.3753e-06
2.4225e-05
-7.2235e-07
2.43235e-05
1.1931e-06
2.43349e-05
3.39892e-06
2.426e-05
5.92299e-06
2.41014e-05
8.79194e-06
2.38607e-05
1.20273e-05
2.35348e-05
1.56385e-05
2.3109e-05
1.96119e-05
2.25444e-05
2.38933e-05
2.17543e-05
2.83581e-05
2.0562e-05
3.27665e-05
1.86249e-05
3.66961e-05
1.53383e-05
3.95154e-05
9.74998e-06
3.98379e-05
3.56685e-05
1.03484e-06
-2.53832e-06
2.31792e-06
-8.83742e-06
3.52869e-06
-1.20841e-05
4.62572e-06
-1.36825e-05
5.62991e-06
-1.43879e-05
6.56915e-06
-1.45902e-05
7.46548e-06
-1.45088e-05
8.33422e-06
-1.42743e-05
9.18534e-06
-1.39656e-05
1.00249e-05
-1.36302e-05
1.08565e-05
-1.3296e-05
1.16816e-05
-1.29775e-05
1.25008e-05
-1.26811e-05
1.33139e-05
-1.24073e-05
1.41201e-05
-1.21532e-05
1.49183e-05
-1.1913e-05
1.57067e-05
-1.16795e-05
1.64837e-05
-1.1444e-05
1.72469e-05
-1.11972e-05
1.79939e-05
-1.09291e-05
1.87217e-05
-1.0629e-05
1.94271e-05
-1.02852e-05
2.01064e-05
-9.8853e-06
2.07553e-05
-9.4153e-06
2.13693e-05
-8.8599e-06
2.19429e-05
-8.20228e-06
2.24707e-05
-7.42383e-06
2.29466e-05
-6.50389e-06
2.33642e-05
-5.41953e-06
2.37173e-05
-4.146e-06
2.39998e-05
-2.65782e-06
2.42073e-05
-9.29865e-07
2.43378e-05
1.06266e-06
2.4392e-05
3.34473e-06
2.43734e-05
5.94152e-06
2.42873e-05
8.87803e-06
2.41382e-05
1.21764e-05
2.39263e-05
1.58504e-05
2.36411e-05
1.98971e-05
2.32499e-05
2.42845e-05
2.26754e-05
2.89326e-05
2.17525e-05
3.36895e-05
2.01415e-05
3.83071e-05
1.71973e-05
4.24596e-05
1.1628e-05
4.54072e-05
4.72938e-05
1.10652e-06
-3.64484e-06
2.43266e-06
-1.01636e-05
3.6611e-06
-1.33125e-05
4.76098e-06
-1.47824e-05
5.75976e-06
-1.53867e-05
6.68871e-06
-1.55191e-05
7.57177e-06
-1.53919e-05
8.42557e-06
-1.51281e-05
9.26104e-06
-1.4801e-05
1.0085e-05
-1.44542e-05
1.09013e-05
-1.41123e-05
1.17118e-05
-1.37881e-05
1.25173e-05
-1.34865e-05
1.33174e-05
-1.32074e-05
1.41113e-05
-1.29471e-05
1.48977e-05
-1.26995e-05
1.5675e-05
-1.24568e-05
1.64413e-05
-1.22103e-05
1.71942e-05
-1.19502e-05
1.79313e-05
-1.16662e-05
1.86496e-05
-1.13473e-05
1.9346e-05
-1.09816e-05
2.0017e-05
-1.05563e-05
2.06586e-05
-1.00569e-05
2.12665e-05
-9.46779e-06
2.18358e-05
-8.77163e-06
2.23616e-05
-7.94959e-06
2.28385e-05
-6.98078e-06
2.3261e-05
-5.84206e-06
2.36237e-05
-4.50864e-06
2.39214e-05
-2.95559e-06
2.4151e-05
-1.15944e-06
2.43119e-05
9.01789e-07
2.4407e-05
3.24967e-06
2.44423e-05
5.90618e-06
2.4426e-05
8.89429e-06
2.43661e-05
1.22363e-05
2.4267e-05
1.59495e-05
2.41243e-05
2.00398e-05
2.39155e-05
2.44933e-05
2.35808e-05
2.92673e-05
2.2985e-05
3.42853e-05
2.18307e-05
3.94613e-05
1.95202e-05
4.477e-05
1.43101e-05
5.06173e-05
6.16014e-05
1.17911e-06
-4.82395e-06
2.5436e-06
-1.15281e-05
3.78499e-06
-1.45539e-05
4.885e-06
-1.58824e-05
5.87692e-06
-1.63786e-05
6.79477e-06
-1.6437e-05
7.66409e-06
-1.62612e-05
8.50261e-06
-1.59666e-05
9.32214e-06
-1.56206e-05
1.01301e-05
-1.52621e-05
1.09307e-05
-1.49129e-05
1.17261e-05
-1.45835e-05
1.2517e-05
-1.42774e-05
1.33031e-05
-1.39936e-05
1.40837e-05
-1.37277e-05
1.48573e-05
-1.34731e-05
1.56222e-05
-1.32218e-05
1.63765e-05
-1.29645e-05
1.71178e-05
-1.26915e-05
1.78436e-05
-1.23919e-05
1.8551e-05
-1.20547e-05
1.9237e-05
-1.16677e-05
1.98983e-05
-1.12176e-05
2.05313e-05
-1.06899e-05
2.11319e-05
-1.00684e-05
2.16958e-05
-9.33549e-06
2.22185e-05
-8.47225e-06
2.26954e-05
-7.4577e-06
2.31219e-05
-6.26858e-06
2.34933e-05
-4.88003e-06
2.38054e-05
-3.26766e-06
2.40557e-05
-1.40981e-06
2.42452e-05
7.12278e-07
2.43788e-05
3.11615e-06
2.44649e-05
5.82001e-06
2.4515e-05
8.84418e-06
2.45408e-05
1.22105e-05
2.45517e-05
1.59386e-05
2.45509e-05
2.00406e-05
2.45291e-05
2.45151e-05
2.44518e-05
2.93446e-05
2.42321e-05
3.4505e-05
2.36687e-05
4.00247e-05
2.23149e-05
4.61239e-05
1.78883e-05
5.50438e-05
7.94874e-05
8.1861e-40
-1.33942e-38
-3.58601e-39
5.56466e-39
-1.92079e-39
6.12289e-39
-1.62178e-40
6.16016e-40
-1.08481e-41
2.33745e-41
-2.59922e-42
8.50532e-43
-2.28281e-41
1.00025e-43
-4.57634e-41
-1.36922e-42
-7.46565e-40
-7.62063e-41
-7.11193e-39
-1.43558e-39
-3.79556e-38
-2.54914e-38
-1.10093e-37
-3.28299e-37
-1.98209e-37
-1.6716e-36
-4.41471e-38
-4.97025e-36
1.12981e-37
-6.67168e-36
1.01464e-37
-2.68328e-36
4.73175e-38
-7.59004e-37
1.24197e-38
-1.34509e-37
2.62059e-39
-1.56071e-38
4.27947e-40
-2.07853e-39
5.03895e-41
-3.34095e-40
3.92097e-42
-3.41662e-41
1.95479e-43
-1.79956e-42
6.93047e-45
-5.32951e-44
1.64835e-46
-8.09771e-46
2.01219e-48
1.61932e-49
1.03556e-49
2.88166e-50
4.2668e-51
2.36021e-51
1.65038e-52
1.44846e-52
5.7082e-54
7.46566e-54
1.70255e-55
3.29426e-55
4.19633e-57
1.23161e-56
8.05422e-59
3.79206e-58
1.10113e-60
9.15549e-60
9.25383e-63
1.5976e-61
4.33405e-65
1.72356e-63
8.56768e-66
8.6241e-66
2.10867e-68
-1.19091e-38
-2.02687e-38
-8.61224e-38
2.79298e-37
-7.49289e-38
2.86306e-37
-1.43371e-38
7.80693e-38
-1.65521e-39
6.82545e-39
-2.26385e-40
3.89498e-40
-4.02157e-40
2.34769e-41
-1.13257e-38
-6.28995e-40
-2.10585e-37
-3.44255e-38
-1.71001e-36
-5.6808e-37
-6.75889e-36
-4.1275e-36
-1.39458e-35
-1.62577e-35
-1.5702e-35
-3.87516e-35
-3.35618e-36
-6.11113e-35
9.22347e-36
-6.26699e-35
1.0795e-35
-4.20273e-35
5.69336e-36
-1.85701e-35
1.74784e-36
-5.29211e-36
4.1335e-37
-1.02049e-36
6.56387e-38
-1.70017e-37
7.75568e-39
-3.69225e-38
6.41986e-40
-5.15959e-39
3.39799e-41
-3.05835e-40
1.24702e-42
-9.73226e-42
3.0707e-44
-1.61887e-43
3.9583e-46
7.93833e-48
3.50932e-47
1.92447e-47
9.62744e-49
1.77114e-48
3.91375e-50
1.17662e-49
1.45289e-51
6.53598e-51
4.68894e-53
3.11049e-52
1.26521e-54
1.26023e-53
2.70155e-56
4.23917e-55
4.21038e-58
1.13262e-56
4.2044e-60
2.23418e-58
2.10917e-62
2.85282e-60
3.69767e-65
1.81158e-62
2.84512e-65
-1.10602e-36
1.29755e-36
-3.23893e-36
1.18772e-35
-3.38462e-36
1.25717e-35
-8.01461e-37
4.85485e-36
-1.15766e-37
5.18442e-37
-2.73737e-38
3.89678e-38
-5.41763e-38
3.23251e-39
-1.59627e-36
-1.36934e-37
-2.66254e-35
-6.36906e-36
-1.89158e-34
-9.27558e-35
-6.66056e-34
-5.98511e-34
-1.24456e-33
-2.13901e-33
-1.26484e-33
-4.7115e-33
-2.48153e-34
-7.0084e-33
7.21342e-34
-6.88387e-33
8.25302e-34
-4.50611e-33
4.34976e-34
-1.97748e-33
1.27133e-34
-5.6899e-34
2.99077e-35
-1.04308e-34
4.95506e-36
-1.7402e-35
6.034e-37
-2.96535e-36
5.26234e-38
-4.28861e-37
2.94995e-39
-2.71038e-38
1.13232e-40
-9.21076e-40
2.94989e-42
-1.67257e-41
3.65386e-44
-2.56376e-44
2.23323e-45
2.5745e-45
8.50978e-47
2.23497e-46
3.46207e-48
1.51282e-47
1.28397e-49
8.46371e-49
4.15719e-51
4.04515e-50
1.13115e-52
1.64599e-51
2.45761e-54
5.57511e-53
3.96186e-56
1.50984e-54
5.12937e-58
3.06158e-56
3.32413e-60
4.16931e-58
8.80927e-63
2.99139e-60
6.24914e-63
-3.50719e-35
8.14774e-35
-8.28711e-35
3.25085e-34
-1.05052e-34
3.67333e-34
-3.12152e-35
1.93717e-34
-5.28511e-36
2.49308e-35
-2.31251e-36
2.43721e-36
-5.08346e-36
2.70433e-37
-1.51536e-34
-1.81084e-35
-2.24004e-33
-7.24099e-34
-1.38071e-32
-9.23231e-33
-4.32052e-32
-5.26684e-32
-7.32014e-32
-1.7086e-31
-6.67321e-32
-3.48357e-31
-1.14918e-32
-4.89043e-31
3.79452e-32
-4.61632e-31
4.23289e-32
-2.9593e-31
2.23115e-32
-1.29242e-31
6.64323e-33
-3.764e-32
1.48356e-33
-7.00514e-33
2.53416e-34
-1.11897e-33
3.17261e-35
-1.62774e-34
2.90414e-36
-2.41289e-35
1.72234e-37
-1.6193e-36
6.92334e-39
-5.86589e-38
1.89371e-40
-1.15008e-39
2.44002e-42
-3.34798e-42
1.17887e-43
2.05872e-43
5.02463e-45
1.69815e-44
2.03016e-46
1.15907e-45
7.50932e-48
6.49236e-47
2.43331e-49
3.10191e-48
6.65788e-51
1.26256e-49
1.57952e-52
4.28987e-51
3.16525e-54
1.17627e-52
4.15017e-56
2.45407e-54
3.03953e-58
3.50123e-56
1.08531e-60
2.7832e-58
7.5887e-61
-6.64557e-34
1.95413e-33
-1.72717e-33
6.71719e-33
-2.38508e-33
8.09961e-33
-9.23188e-34
5.63095e-33
-1.91128e-34
8.66365e-34
-1.17697e-34
1.09906e-34
-3.81009e-34
1.57518e-35
-1.10285e-32
-1.7345e-33
-1.41869e-31
-5.92392e-32
-7.51231e-31
-6.5428e-31
-2.08433e-30
-3.28505e-30
-3.20748e-30
-9.67741e-30
-2.61969e-30
-1.83041e-29
-3.69632e-31
-2.42861e-29
1.52265e-30
-2.20995e-29
1.64788e-30
-1.39048e-29
8.68874e-31
-6.05444e-30
2.63894e-31
-1.78705e-30
5.683e-32
-3.39264e-31
9.94973e-33
-5.25305e-32
1.28097e-33
-6.8677e-33
1.22781e-34
-1.03952e-33
7.69504e-36
-7.3853e-35
3.24674e-37
-2.84644e-36
9.30396e-39
-5.98811e-38
1.23561e-40
-2.45478e-40
5.14283e-42
1.19099e-41
2.31231e-43
9.43521e-43
9.27692e-45
6.48498e-44
3.42923e-46
3.63791e-45
1.11402e-47
1.73916e-46
3.35718e-49
7.0895e-48
9.0606e-51
2.43076e-49
1.7904e-52
6.77328e-51
2.47791e-54
1.44186e-52
2.01584e-56
2.14747e-54
9.00771e-59
1.86776e-56
6.39061e-59
-9.27291e-33
2.9699e-32
-3.01414e-32
1.11625e-31
-4.20627e-32
1.4995e-31
-2.21956e-32
1.24e-31
-5.78025e-33
2.41033e-32
-5.12368e-33
4.06487e-33
-2.46696e-32
6.41048e-34
-6.56485e-31
-1.32848e-31
-7.20287e-30
-3.78095e-30
-3.24668e-29
-3.57935e-29
-7.97191e-29
-1.5753e-28
-1.11601e-28
-4.21591e-28
-8.14405e-29
-7.41366e-28
-8.20156e-30
-9.31042e-28
4.97007e-29
-8.19182e-28
5.19724e-29
-5.07e-28
2.74212e-29
-2.20526e-28
8.50917e-30
-6.60837e-29
1.79104e-30
-1.28448e-29
3.21132e-31
-1.94985e-30
4.25626e-32
-2.50644e-31
4.26506e-33
-3.66894e-32
2.81944e-34
-2.75348e-33
1.25035e-35
-1.12636e-34
3.75591e-37
-2.53142e-36
5.14838e-39
-1.30883e-38
1.92754e-40
5.47969e-40
8.96446e-42
4.22558e-41
3.5761e-43
2.92834e-42
1.32456e-44
1.64862e-43
4.62617e-46
7.90354e-45
1.54286e-47
3.2477e-46
4.09874e-49
1.12754e-47
8.3364e-51
3.17848e-49
1.21276e-52
6.92066e-51
1.07296e-54
1.07185e-52
5.58239e-57
1.00603e-54
4.028e-57
-1.00363e-31
3.38418e-31
-4.35464e-31
1.56577e-30
-7.46668e-31
2.53781e-30
-4.95483e-31
2.33578e-30
-2.05136e-31
6.46264e-31
-2.19153e-31
1.62997e-31
-1.45914e-30
1.07919e-32
-3.3151e-29
-8.5696e-30
-3.0403e-28
-1.97376e-28
-1.15711e-27
-1.5862e-27
-2.51156e-27
-6.09845e-27
-3.20315e-27
-1.48386e-26
-2.07837e-27
-2.43105e-26
-9.80811e-29
-2.89463e-26
1.37263e-27
-2.47009e-26
1.38234e-27
-1.50705e-26
7.30132e-28
-6.56181e-27
2.31873e-28
-2.00034e-27
4.82748e-29
-3.99428e-28
8.91604e-30
-6.0146e-29
1.21542e-30
-7.98592e-30
1.27258e-31
-1.10678e-30
8.85235e-33
-8.7671e-32
4.12375e-34
-3.79494e-33
1.29966e-35
-9.07134e-35
1.84802e-37
-5.58276e-37
6.41562e-39
2.11085e-38
3.0648e-40
1.61466e-39
1.21819e-41
1.1309e-40
4.6013e-43
6.40729e-42
1.80831e-44
3.09311e-43
6.05006e-46
1.28873e-44
1.61856e-47
4.5199e-46
3.39274e-49
1.29325e-47
5.15359e-51
2.88186e-49
4.87913e-53
4.62829e-51
2.7987e-55
4.63292e-53
2.07197e-55
-9.26536e-31
3.14696e-30
-6.34605e-30
2.09065e-29
-1.49724e-29
4.52515e-29
-1.46596e-29
4.95599e-29
-1.34041e-29
2.57023e-29
-1.44978e-29
1.07697e-29
-8.37007e-29
-2.37806e-30
-1.44622e-27
-4.58695e-28
-1.09115e-26
-8.68889e-27
-3.48079e-26
-5.87412e-26
-6.67832e-26
-1.96709e-25
-7.7692e-26
-4.35811e-25
-4.44382e-26
-6.66353e-25
1.27016e-27
-7.53867e-25
3.29292e-26
-6.25951e-25
3.18519e-26
-3.7728e-25
1.68504e-26
-1.64798e-25
5.48702e-27
-5.12116e-26
1.14279e-27
-1.05668e-26
2.1876e-28
-1.59291e-27
3.07213e-29
-2.1995e-28
3.36361e-30
-2.93663e-29
2.45791e-31
-2.45815e-30
1.19951e-32
-1.12299e-31
3.96581e-34
-2.84041e-33
5.85638e-36
-2.00634e-35
1.94258e-37
6.91762e-37
9.50486e-39
5.45775e-38
3.77602e-40
3.87395e-39
1.58902e-41
2.21528e-40
6.35194e-43
1.08639e-41
2.11594e-44
4.58016e-43
5.78741e-46
1.62667e-44
1.25001e-47
4.73699e-46
1.97415e-49
1.08106e-47
1.9824e-51
1.79652e-49
1.22491e-53
1.90027e-51
9.31093e-54
-7.70581e-30
2.69944e-29
-9.54042e-29
3.01025e-28
-4.00988e-28
1.03875e-27
-8.24091e-28
1.83942e-27
-9.33987e-28
1.68052e-27
-1.05981e-27
7.81385e-28
-4.1283e-27
-2.71001e-28
-5.49024e-26
-2.1453e-26
-3.37695e-25
-3.28531e-25
-8.96329e-25
-1.8559e-24
-1.52193e-24
-5.39533e-24
-1.6143e-24
-1.0916e-23
-8.03939e-25
-1.55998e-23
1.17669e-25
-1.68158e-23
6.99013e-25
-1.36305e-23
6.48075e-25
-8.13593e-24
3.43564e-25
-3.5738e-24
1.14973e-25
-1.13478e-24
2.41798e-26
-2.43231e-25
4.82319e-27
-3.69638e-26
7.01934e-28
-5.35432e-27
8.05397e-29
-6.99205e-28
6.18375e-30
-6.20909e-29
3.14842e-31
-2.99042e-30
1.08973e-32
-7.95446e-32
1.74237e-34
-6.28195e-34
5.46963e-36
2.04428e-35
2.68797e-37
1.67201e-36
1.09633e-38
1.20609e-37
5.02303e-40
6.99432e-39
2.02859e-41
3.49191e-40
6.8489e-43
1.49329e-41
1.91915e-44
5.3907e-43
4.26704e-46
1.60105e-44
6.98779e-48
3.74508e-46
7.39095e-50
6.42984e-48
4.84722e-52
7.1369e-50
3.77862e-52
-6.96415e-29
2.17547e-28
-2.10049e-27
5.3085e-27
-1.3338e-26
2.96671e-26
-3.08938e-26
6.37107e-26
-2.94465e-26
5.76422e-26
-3.06009e-26
2.07936e-26
-1.56817e-25
-1.34855e-26
-1.83665e-24
-9.09258e-25
-9.08637e-24
-1.07795e-23
-1.99049e-23
-5.07343e-23
-2.99683e-23
-1.27496e-22
-2.83672e-23
-2.36714e-22
-1.2446e-23
-3.16708e-22
4.055e-24
-3.26376e-22
1.33077e-23
-2.59065e-22
1.18108e-23
-1.53559e-22
6.27697e-24
-6.80096e-23
2.16313e-24
-2.21275e-23
4.72576e-25
-4.94751e-24
9.64277e-26
-7.80409e-25
1.47212e-26
-1.16365e-25
1.77592e-27
-1.51495e-26
1.43805e-28
-1.43765e-27
7.61021e-30
-7.31444e-29
2.73875e-31
-2.03305e-30
4.72038e-33
-1.75313e-32
1.43833e-34
5.5471e-34
7.13457e-36
4.71844e-35
3.16821e-37
3.46962e-36
1.48301e-38
2.0557e-37
6.03706e-40
1.04484e-38
2.08496e-41
4.5468e-40
5.99614e-43
1.67378e-41
1.37228e-44
5.08097e-43
2.32607e-46
1.21936e-44
2.57656e-48
2.16282e-46
1.77498e-50
2.50351e-48
1.4162e-50
-8.38136e-28
2.1403e-27
-4.01058e-26
8.9522e-26
-2.42652e-25
5.35133e-25
-4.53786e-25
1.0212e-24
-3.24552e-25
7.98505e-25
-4.15598e-25
2.03847e-25
-5.81917e-24
-6.95596e-25
-5.41158e-23
-3.45823e-23
-2.1351e-22
-3.11061e-22
-3.82649e-22
-1.22102e-21
-5.11186e-22
-2.64882e-21
-4.2058e-22
-4.51948e-21
-1.57947e-22
-5.67323e-21
1.01363e-22
-5.601e-21
2.29718e-22
-4.35846e-21
1.94974e-22
-2.56993e-21
1.0389e-22
-1.14958e-21
3.69348e-23
-3.84171e-22
8.51992e-24
-8.99586e-23
1.77572e-24
-1.50132e-23
2.86126e-25
-2.29871e-24
3.64883e-26
-3.01941e-25
3.14311e-27
-3.09093e-26
1.73041e-28
-1.67394e-27
6.40453e-30
-4.8442e-29
1.17459e-31
-4.45172e-31
3.56649e-33
1.40323e-32
1.79649e-34
1.24192e-33
8.60091e-36
9.34248e-35
4.12751e-37
5.67394e-36
1.70656e-38
2.94706e-37
6.04347e-40
1.30984e-38
1.78636e-41
4.93193e-40
4.2105e-43
1.53376e-41
7.38701e-45
3.78083e-43
8.52347e-47
6.92554e-45
6.11687e-49
8.32428e-47
4.98342e-49
-1.10999e-26
2.75032e-26
-4.87419e-25
1.14768e-24
-2.0413e-24
5.12394e-24
-3.09371e-24
7.54402e-24
-2.97436e-24
5.36308e-24
-9.88358e-24
2.19077e-24
-2.11868e-22
-3.8882e-23
-1.40246e-21
-1.23328e-21
-4.39526e-21
-8.2842e-21
-6.39747e-21
-2.68944e-20
-7.53602e-21
-5.0779e-20
-5.28933e-21
-7.86701e-20
-1.43778e-21
-9.23098e-20
2.11523e-21
-8.71637e-20
3.6353e-21
-6.6269e-20
2.94656e-21
-3.88328e-20
1.57276e-21
-1.75298e-20
5.77467e-22
-6.01532e-21
1.41203e-22
-1.47608e-21
3.03354e-23
-2.62265e-22
5.19126e-24
-4.16383e-23
7.03973e-25
-5.56795e-24
6.53598e-26
-6.2228e-25
3.77885e-27
-3.64244e-26
1.43135e-28
-1.10172e-27
2.73573e-30
-1.05897e-29
8.3992e-32
3.36215e-31
4.32275e-33
3.07748e-32
2.21423e-34
2.3772e-33
1.08785e-35
1.48524e-34
4.62139e-37
7.91105e-36
1.68421e-38
3.60658e-37
5.12561e-40
1.39346e-38
1.24555e-41
4.45074e-40
2.26124e-43
1.12947e-41
2.70841e-45
2.13396e-43
2.01072e-47
2.65736e-45
1.67028e-47
-1.05875e-25
2.99933e-25
-3.81607e-24
9.55935e-24
-1.02077e-23
2.89723e-23
-1.15616e-23
3.22554e-23
-1.75646e-23
2.20522e-23
-4.52925e-22
5.78994e-23
-7.14185e-21
-2.71008e-21
-3.2024e-20
-4.53844e-20
-7.89468e-20
-2.1755e-19
-9.18971e-20
-5.60765e-19
-9.2982e-20
-9.22522e-19
-5.39005e-20
-1.28579e-18
-3.54202e-21
-1.38827e-18
3.86621e-20
-1.25567e-18
5.3349e-20