/*--------------------------------*- C++ -*----------------------------------*\
  =========                 |
  \\      /  F ield         | OpenFOAM: The Open Source CFD Toolbox
   \\    /   O peration     | Website:  https://openfoam.org
    \\  /    A nd           | Version:  7
     \\/     M anipulation  |
\*---------------------------------------------------------------------------*/
FoamFile
{
    version     2.0;
    format      ascii;
    class       volScalarField;
    location    "0.4";
    object      alpha.water;
}
// * * * * * * * * * * * * * * * * * * * * * * * * * * * * * * * * * * * * * //

dimensions      [0 0 0 0 0 0 0];

internalField   nonuniform List<scalar> 
9072
(
1
1
1
1
1
1
1
1
1
1
1
1
1
1
1
1
1
1
1
1
1
1
1
1
1
1
1
1
1
1
1
1
1
1
1
1
1
1
1
1
1
0.942697
0.98515
0.99946
0.998889
0.998342
1
1
1
1
1
1
1
1
1
1
1
1
1
1
1
1
1
1
1
1
1
1
1
1
1
1
1
1
1
1
1
1
1
1
1
1
1
1
1
1
1
0.959842
0.940689
0.999462
0.999467
0.999467
1
1
1
1
1
1
1
1
1
1
1
1
1
1
1
1
1
1
1
1
1
1
1
1
1
1
1
1
1
1
1
1
1
1
1
1
1
1
1
1
1
0.999472
0.923775
0.933558
0.998821
0.999474
1
1
1
1
1
1
1
1
1
1
1
1
1
1
1
1
1
1
1
1
1
1
1
1
1
1
1
1
1
1
1
1
1
1
1
1
1
1
1
1
1
1
0.922713
0.918674
0.964044
0.999474
1
1
1
1
1
1
1
1
1
1
1
1
1
1
1
1
1
1
1
1
1
1
1
1
1
1
1
1
1
1
1
1
1
1
1
1
1
1
1
1
1
1
0.969005
0.918674
0.951684
0.999371
1
1
1
1
1
1
1
1
1
1
1
1
1
1
1
1
1
1
1
1
1
1
1
1
1
1
1
1
1
1
1
1
1
1
1
1
1
1
1
1
1
1
1
0.931959
0.968256
0.99926
1
1
1
1
1
1
1
1
1
1
1
1
1
1
1
1
1
1
1
1
1
1
1
1
1
1
1
1
1
1
1
1
1
1
1
1
1
1
1
1
1
1
1
0.993298
0.997735
0.999604
1
1
1
1
1
1
1
1
1
1
1
1
1
1
1
1
1
1
1
1
1
1
1
1
1
1
1
1
1
1
1
1
1
1
1
1
1
1
1
1
1
1
1
0.999991
0.999989
0.999823
1
1
1
1
1
1
1
1
1
1
1
1
1
1
1
1
1
1
1
1
1
1
1
1
1
1
1
1
1
1
1
1
1
1
1
1
1
1
1
1
1
1
1
0.999999
0.999996
0.999719
1
1
1
1
1
1
1
1
1
1
1
1
1
1
1
1
1
1
1
1
1
1
1
1
1
1
1
1
1
1
1
1
1
1
1
1
1
1
1
1
1
1
1
1
0.999998
0.999719
1
1
1
1
1
1
1
1
1
1
1
1
1
1
1
1
1
1
1
1
1
1
1
1
1
1
1
1
1
1
1
1
1
1
1
1
1
1
1
1
1
1
1
1
1
0.999722
1
1
1
1
1
1
1
1
1
1
1
1
1
1
1
1
1
1
1
1
1
1
1
1
1
1
1
1
1
1
1
1
1
1
1
1
1
1
1
1
1
1
1
1
1
0.999729
1
1
1
1
1
1
1
1
1
1
1
1
1
1
1
1
1
1
1
1
1
1
1
1
1
1
1
1
1
1
1
1
1
1
1
1
1
1
1
1
1
1
1
1
1
0.999745
1
1
1
1
1
1
1
1
1
1
1
1
1
1
1
1
1
1
1
1
1
1
1
1
1
1
1
1
1
1
1
1
1
1
1
1
1
1
1
1
1
1
1
1
1
0.999757
1
1
1
1
1
1
1
1
1
1
1
1
1
1
1
1
1
1
1
1
1
1
1
1
1
1
1
1
1
1
1
1
1
1
1
1
1
1
1
1
1
1
1
1
1
0.999758
1
1
1
1
1
1
1
1
1
1
1
1
1
1
1
1
1
1
1
1
1
1
1
1
1
1
1
1
1
1
1
1
1
1
1
1
1
1
1
1
1
1
1
1
1
0.999762
1.62894e-33
3.76556e-33
3.21534e-33
3.59415e-34
1.8528e-35
1.13319e-36
3.94862e-37
4.62151e-37
1.18673e-35
1.17496e-34
8.6404e-34
5.83302e-33
2.3554e-32
5.85909e-32
5.70231e-32
2.24237e-32
6.14104e-33
1.09783e-33
1.23296e-34
1.03764e-35
6.24479e-37
2.92605e-38
1.22025e-39
4.92588e-41
2.03203e-42
1.0013e-43
9.73651e-45
4.98554e-46
2.02584e-47
7.73402e-49
2.63882e-50
7.7499e-52
1.87428e-53
3.50845e-55
4.63029e-57
3.70066e-59
1.29064e-61
4.1973e-62
2.55198e-32
4.74064e-32
3.97162e-32
1.20888e-32
1.47664e-33
1.48069e-34
1.85769e-35
1.78941e-34
3.70106e-33
3.17462e-32
1.31134e-31
2.99035e-31
4.44667e-31
4.79923e-31
4.49992e-31
3.51216e-31
1.82345e-31
5.42297e-32
8.70227e-33
6.83188e-34
1.03263e-35
6.22053e-37
2.91956e-38
1.22043e-39
4.9259e-41
2.03202e-42
1.78212e-42
1.66288e-43
4.14716e-45
1.59536e-46
5.57743e-48
1.67332e-49
4.10524e-51
7.65913e-53
9.65429e-55
6.60836e-57
1.45397e-59
4.1973e-62
1.1203e-30
1.28569e-30
1.17838e-30
5.26307e-31
8.03531e-32
1.09082e-32
1.95958e-33
2.70253e-32
5.10759e-31
4.00659e-30
1.56686e-29
3.58983e-29
5.59072e-29
6.69016e-29
6.03017e-29
4.09507e-29
1.93664e-29
5.50025e-30
8.39507e-31
7.56877e-32
1.60605e-33
1.02655e-34
5.03643e-36
2.16693e-37
8.98874e-39
3.71792e-40
1.25521e-40
1.0006e-41
3.43444e-43
1.2794e-44
4.2915e-46
1.22371e-47
2.7941e-49
4.61872e-51
4.38671e-53
4.78289e-55
1.70096e-57
1.28199e-59
2.20949e-29
2.62386e-29
2.6991e-29
1.66641e-29
3.10277e-30
5.60054e-31
1.47178e-31
2.75254e-30
4.69799e-29
3.33745e-28
1.21756e-27
2.70207e-27
4.1281e-27
4.90085e-27
4.24519e-27
2.74114e-27
1.24441e-27
3.54806e-28
5.49607e-29
5.15697e-30
1.33389e-31
8.87076e-33
4.49445e-34
1.96456e-35
8.19004e-37
3.38927e-38
6.40263e-39
5.0033e-40
1.89974e-41
6.75641e-43
2.15003e-44
5.70034e-46
1.1463e-47
1.96689e-49
3.53335e-51
3.31204e-53
1.36932e-55
1.65436e-57
2.89155e-28
4.30481e-28
4.94364e-28
4.09479e-28
9.20437e-29
2.20499e-29
9.19879e-30
2.15575e-28
3.25973e-27
2.07367e-26
6.98348e-26
1.47781e-25
2.18146e-25
2.51859e-25
2.10312e-25
1.30889e-25
5.78488e-26
1.6608e-26
2.62638e-27
2.53349e-28
7.45822e-30
5.16218e-31
2.70325e-32
1.20137e-33
5.02115e-35
2.06961e-36
2.52075e-37
2.07894e-38
8.19459e-40
2.76242e-41
8.25037e-43
1.95782e-44
4.50333e-46
1.13179e-47
1.7604e-49
1.73369e-51
8.32347e-54
1.34353e-55
2.91485e-27
5.88833e-27
7.84349e-27
7.90773e-27
2.26416e-27
7.39393e-28
5.54972e-28
1.39215e-26
1.81857e-25
1.02508e-24
3.16023e-24
6.3056e-24
8.92444e-24
9.91736e-24
8.00842e-24
4.84208e-24
2.1019e-24
6.08784e-25
9.94054e-26
9.75029e-27
3.74486e-28
2.29132e-29
1.2436e-30
5.64275e-32
2.37179e-33
9.74596e-35
8.23766e-36
7.45311e-37
2.98226e-38
9.46284e-40
2.59629e-41
6.68932e-43
2.04933e-44
4.61057e-46
7.27557e-48
7.63158e-50
4.00529e-52
8.11132e-54
2.43662e-26
6.92205e-26
1.15906e-25
1.32573e-25
5.46851e-26
2.74474e-26
3.73264e-26
7.79791e-25
8.46887e-24
4.19141e-23
1.17554e-22
2.19382e-22
2.96407e-22
3.15331e-22
2.47002e-22
1.4587e-22
6.25815e-23
1.83403e-23
3.08417e-24
3.09596e-25
1.53256e-26
8.29629e-28
4.68115e-29
2.17928e-30
9.25999e-32
3.80768e-33
2.34561e-34
2.38072e-35
9.59442e-37
2.83908e-38
7.32995e-40
2.54841e-41
7.61274e-43
1.64806e-44
2.68312e-46
2.94718e-48
1.60557e-50
3.86734e-52
1.75398e-25
7.78369e-25
1.8171e-24
2.50972e-24
1.99623e-24
1.76197e-24
3.29413e-24
3.79205e-23
3.37467e-22
1.45409e-21
3.69278e-21
6.41153e-21
8.24297e-21
8.37552e-21
6.38496e-21
3.69763e-21
1.57556e-21
4.68462e-22
8.13636e-23
8.40255e-24
4.96572e-25
2.55496e-26
1.50306e-27
7.21159e-29
3.11597e-30
1.28878e-31
6.09298e-33
6.94476e-34
2.80412e-35
7.62184e-37
2.45687e-38
8.7847e-40
2.45676e-41
5.40141e-43
9.07124e-45
1.03421e-46
5.87859e-49
1.59027e-50
1.19726e-24
9.3503e-24
3.68031e-23
8.4875e-23
1.23646e-22
1.32029e-22
2.13776e-22
1.53044e-21
1.17098e-20
4.35391e-20
9.97109e-20
1.60692e-19
1.95922e-19
1.90104e-19
1.41573e-19
8.06646e-20
3.42831e-20
1.03646e-20
1.88717e-21
1.99897e-22
1.36175e-23
6.88517e-25
4.23444e-26
2.10098e-27
9.28198e-29
3.88331e-30
1.79975e-31
1.89653e-32
7.4044e-34
1.9481e-35
7.54516e-37
2.67022e-38
7.38422e-40
1.66084e-41
2.86702e-43
3.37738e-45
2.00815e-47
5.89185e-49
7.51054e-24
1.37334e-22
9.58298e-22
2.80077e-21
4.20043e-21
3.78881e-21
6.03036e-21
5.63889e-20
3.56482e-19
1.13819e-18
2.33917e-18
3.50391e-18
4.03669e-18
3.74618e-18
2.73371e-18
1.53809e-18
6.54704e-19
2.0189e-19
3.8701e-20
4.34938e-21
3.3147e-22
1.65703e-23
1.06837e-24
5.49418e-26
2.49291e-27
1.06099e-28
4.95779e-30
4.85349e-31
1.83101e-32
5.48313e-34
2.17689e-35
7.49601e-37
2.10675e-38
4.85409e-40
8.60023e-42
1.03411e-43
6.45882e-46
2.01866e-47
5.61086e-23
1.99914e-21
1.6535e-20
4.4838e-20
6.02534e-20
3.80996e-20
1.63093e-19
1.91073e-18
9.59833e-18
2.63307e-17
4.84202e-17
6.7606e-17
7.32533e-17
6.51592e-17
4.66148e-17
2.59614e-17
1.10987e-17
3.50096e-18
7.07364e-19
8.58275e-20
7.18299e-21
3.61589e-22
2.4529e-23
1.30933e-24
6.11814e-26
2.66301e-27
1.26256e-28
1.17578e-29
4.31372e-31
1.45126e-32
5.91256e-34
2.01198e-35
5.76991e-37
1.36269e-38
2.47699e-40
3.05927e-42
1.99096e-44
6.52008e-46
6.22046e-22
2.31034e-20
1.57063e-19
3.46602e-19
4.3861e-19
3.32512e-19
6.31492e-18
5.87914e-17
2.36604e-16
5.59403e-16
9.27989e-16
1.19713e-15
1.21391e-15
1.03283e-15
7.20249e-16
3.96339e-16
1.6989e-16
5.47559e-17
1.16351e-17
1.53043e-18
1.41058e-19
7.23761e-21
5.19308e-22
2.88169e-23
1.3493e-24
6.19969e-26
2.99995e-27
2.71815e-28
9.77087e-30
3.64432e-31
1.50387e-32
5.20625e-34
1.53179e-35
3.7096e-37
6.88514e-39
8.82727e-41
5.90486e-43
2.00876e-44
6.54439e-21
1.80284e-19
9.18668e-19
1.52898e-18
1.53716e-18
1.05549e-17
2.55592e-16
1.78959e-15
5.76864e-15
1.15029e-14
1.73295e-14
2.03208e-14
1.9027e-14
1.5464e-14
1.04831e-14
5.70288e-15
2.45029e-15
8.04249e-16
1.77878e-16
2.50185e-17
2.53974e-18
1.34164e-19
1.02569e-20
5.88819e-22
2.77804e-23
1.34925e-24
6.69884e-26
6.04533e-27
2.1501e-28
8.75242e-30
3.7102e-31
1.31695e-32
3.98132e-34
9.90797e-36
1.89447e-37
2.49164e-39
1.71134e-41
5.97301e-43
4.92388e-20
8.05442e-19
3.38558e-18
6.00296e-18
1.21344e-17
5.88656e-16
1.0006e-14
4.86576e-14
1.24963e-13
2.03629e-13
2.6755e-13
2.94678e-13
2.59422e-13
2.09997e-13
1.46365e-13
8.24367e-14
3.70443e-14
1.28368e-14
3.07292e-15
4.71139e-16
4.26023e-17
2.35151e-18
1.90882e-19
1.14534e-20
5.53426e-22
2.77628e-23
1.41875e-24
1.32307e-25
4.75391e-27
2.03274e-28
9.05856e-30
3.34822e-31
1.04442e-32
2.67855e-34
5.29295e-36
7.23731e-38
5.25945e-40
1.78657e-41
1.5193e-19
2.324e-18
1.59579e-17
5.94008e-17
9.08853e-16
2.33185e-14
1.40049e-13
5.62051e-13
1.20146e-12
1.73053e-12
1.78494e-12
1.98055e-12
1.78082e-12
1.48465e-12
1.0912e-12
6.46402e-13
3.09314e-13
1.17045e-13
3.2581e-14
6.27506e-15
8.10131e-16
6.32663e-17
3.37046e-18
2.17827e-19
1.08071e-20
5.53041e-22
2.92348e-23
2.88348e-24
1.06133e-25
4.67626e-27
2.15733e-28
8.60419e-30
2.79418e-31
7.39888e-33
1.51337e-34
2.13468e-36
1.60143e-38
5.28682e-40
9.96179e-19
2.63517e-17
1.65927e-16
2.64451e-15
4.15931e-14
1.98351e-14
5.21835e-13
1.71586e-12
3.12268e-12
4.57886e-12
3.65496e-12
4.41191e-12
4.46205e-12
3.77815e-12
2.79007e-12
1.6725e-12
8.19475e-13
3.27735e-13
9.98884e-14
2.40287e-14
4.40723e-15
5.92896e-16
5.65967e-17
3.97386e-18
2.10716e-19
1.08027e-20
5.92607e-22
6.35854e-23
2.42361e-24
1.07746e-25
5.16521e-27
2.20941e-28
7.72432e-30
2.12676e-31
4.51074e-33
6.58827e-35
5.09583e-37
1.60226e-38
1
1
1
1
1
1
1
1
1
1
1
1
1
1
1
1
1
1
1
1
1
1
1
1
1
1
1
1
1
1
1
1
1
1
1
1
1
1
1
1
1
1
1
1
1
0.999873
1
1
1
1
1
1
1
1
1
1
1
1
1
1
1
1
1
1
1
1
1
1
1
1
1
1
1
1
1
1
1
1
1
1
1
1
1
1
1
1
1
1
1
1
1
1
1
1
0.999999
1
1
1
1
1
1
1
1
1
1
1
1
1
1
1
1
1
1
1
1
1
1
1
1
1
1
1
1
1
1
1
1
1
1
1
1
1
1
1
1
1
1
1
0.999998
0.999987
0.999987
0.99999
0.999994
0.999995
0.999996
0.999997
0.999997
0.999997
0.999997
0.999998
0.999998
0.999998
0.999998
0.999998
0.999998
0.999998
0.999998
0.999998
0.999999
0.999999
0.999999
0.999999
0.999999
1
1
1
1
1
1
1
1
1
1
1
1
1
1
1
1
1
1
1
1
1
0.999933
0.999722
0.999734
0.999809
0.999869
0.999901
0.999917
0.999927
0.999934
0.999938
0.999941
0.999943
0.999945
0.999946
0.999947
0.999948
0.99995
0.999953
0.999956
0.999959
0.999963
0.999967
0.999972
0.999978
0.999983
0.999987
0.999992
0.999997
0.999999
1
1
1
1
1
1
1
1
1
1
1
1
1
1
1
1
1
0.94569
0.855354
0.865925
0.905938
0.94023
0.956483
0.963721
0.967495
0.969607
0.970514
0.970581
0.970077
0.969319
0.968447
0.967629
0.967092
0.966942
0.967188
0.967877
0.968909
0.970338
0.97271
0.976401
0.981583
0.986916
0.991424
0.995414
0.99899
0.999898
0.999938
0.999968
0.999988
0.999996
1
1
1
1
1
1
1
1
1
1
1
1
1
0.255703
0.145487
0.154019
0.205133
0.265563
0.304176
0.32478
0.336521
0.343399
0.346165
0.346089
0.343917
0.340823
0.337325
0.334016
0.33199
0.331388
0.332276
0.334631
0.338122
0.343026
0.351579
0.367096
0.391919
0.422087
0.453025
0.488987
0.545915
0.634676
0.732892
0.811167
0.86511
0.910528
0.955053
0.990161
1
1
1
1
1
1
1
1
1
1
1
-5.92888e-13
-1.31272e-13
-1.27875e-14
-1.55915e-09
-1.75135e-09
-7.18233e-10
-5.43924e-10
-1.6015e-10
-1.97222e-10
-4.85957e-10
-1.06727e-09
-3.74658e-07
-2.6089e-07
-1.06095e-07
-3.62619e-08
-1.31686e-08
-6.73345e-09
-4.74123e-09
-3.74243e-09
-3.02424e-09
-2.28752e-09
-1.69397e-09
-1.23549e-09
-7.74702e-10
-5.16572e-10
-2.97566e-10
-1.43039e-10
-5.27144e-11
0.0111381
0.0491893
0.0958799
0.138642
0.18015
0.24876
0.427448
0.733317
0.972771
1.00001
1.00001
1
1
1
1
1
1
1
-4.22128e-14
-2.64548e-14
-7.609e-15
-4.03652e-09
-5.21929e-09
-2.08906e-09
-5.907e-10
-3.36677e-10
-9.03475e-10
-2.3871e-09
-5.31393e-09
-9.69917e-09
-1.46776e-08
-1.89948e-08
-2.17007e-08
-2.25607e-08
-2.1679e-08
-1.94479e-08
-1.65329e-08
-1.34754e-08
-1.06239e-08
-8.15941e-09
-6.13737e-09
-4.50675e-09
-3.32712e-09
-2.43791e-09
-1.76759e-09
-1.37806e-09
-1.11712e-09
-8.51981e-10
-5.86678e-10
-3.6708e-10
-2.10897e-10
-1.10052e-10
-4.5006e-11
0.00197156
0.0438999
0.390568
0.937311
0.999973
0.999997
1.00001
1
1
1
1
-3.71256e-14
-2.71038e-14
-6.65605e-15
-2.87522e-15
-4.27552e-15
-8.23828e-15
-4.1654e-11
-3.41633e-10
-1.15323e-09
-3.13048e-09
-6.94472e-09
-1.26285e-08
-1.917e-08
-2.50622e-08
-2.90541e-08
-3.05847e-08
-2.97749e-08
-2.7195e-08
-2.35858e-08
-1.96297e-08
-1.58244e-08
-1.24596e-08
-9.65182e-09
-7.40137e-09
-5.64455e-09
-4.2933e-09
-3.25935e-09
-2.46742e-09
-1.85839e-09
-1.38579e-09
-1.01464e-09
-7.21727e-10
-4.9198e-10
-3.15953e-10
-1.87652e-10
-1.00522e-10
-1.36382e-08
0.00644197
0.0594586
0.127361
0.287521
0.746721
0.999997
0.999999
1
1
-2.30268e-14
-1.5508e-14
-3.4445e-15
-1.98521e-15
-4.1966e-15
-8.92153e-15
-3.14721e-11
-2.68006e-10
-8.6923e-10
-2.37865e-09
-5.40738e-09
-1.00104e-08
-1.54662e-08
-2.06189e-08
-2.44203e-08
-2.62925e-08
-2.6204e-08
-2.45316e-08
-2.18407e-08
-1.86924e-08
-1.55268e-08
-1.2625e-08
-1.01238e-08
-8.05521e-09
-6.38901e-09
-5.06621e-09
-4.02115e-09
-3.19329e-09
-2.53176e-09
-1.99569e-09
-1.55378e-09
-1.18378e-09
-8.71537e-10
-6.09903e-10
-3.97621e-10
-2.36789e-10
-3.73094e-09
-7.85092e-08
1.66538e-06
2.2191e-06
8.3786e-06
0.0403223
0.143049
0.254878
0.479145
0.873436
-8.31755e-15
-5.05491e-15
-1.13536e-15
-1.11089e-15
-3.37172e-15
-7.8864e-15
-1.46219e-11
-1.22818e-10
-4.00052e-10
-1.14641e-09
-2.74389e-09
-5.30066e-09
-8.48899e-09
-1.16881e-08
-1.42692e-08
-1.58239e-08
-1.62461e-08
-1.56823e-08
-1.44189e-08
-1.27704e-08
-1.10036e-08
-9.30438e-09
-7.77767e-09
-6.46459e-09
-5.36507e-09
-4.4572e-09
-3.71066e-09
-3.09435e-09
-2.57993e-09
-2.14306e-09
-1.76376e-09
-1.42669e-09
-1.12168e-09
-8.43923e-10
-5.94204e-10
-3.78428e-10
-3.2477e-11
-6.24231e-11
-1.43304e-07
-7.19856e-08
-4.14311e-08
3.92262e-06
8.80168e-06
1.22265e-05
0.00647469
0.0608886
-1.46135e-15
-1.02397e-15
-2.94613e-16
-6.06997e-16
-2.42469e-15
-6.203e-15
-3.94873e-12
-3.25306e-11
-1.07232e-10
-3.4486e-10
-9.16942e-10
-1.90682e-09
-3.22378e-09
-4.6377e-09
-5.8855e-09
-6.77097e-09
-7.21203e-09
-7.23356e-09
-6.92854e-09
-6.41381e-09
-5.79668e-09
-5.15794e-09
-4.54851e-09
-3.99424e-09
-3.50372e-09
-3.07543e-09
-2.70279e-09
-2.37704e-09
-2.08864e-09
-1.82793e-09
-1.58559e-09
-1.3533e-09
-1.12468e-09
-8.96475e-10
-6.69019e-10
-4.43283e-10
1.49552e-10
2.83014e-10
1.65823e-09
1.65085e-08
2.53145e-08
-2.54788e-07
-4.71008e-07
-1.05822e-07
-2.86314e-07
4.4147e-06
-7.05573e-17
-1.40692e-16
-8.23388e-17
-3.56334e-16
-1.66589e-15
-4.65001e-15
-4.90888e-13
-3.91921e-12
-1.31737e-11
-5.92443e-11
-1.95028e-10
-4.56209e-10
-8.31962e-10
-1.26804e-09
-1.69297e-09
-2.04639e-09
-2.29494e-09
-2.43348e-09
-2.47675e-09
-2.4484e-09
-2.37233e-09
-2.26795e-09
-2.14898e-09
-2.02422e-09
-1.89899e-09
-1.77635e-09
-1.65775e-09
-1.54314e-09
-1.43107e-09
-1.3187e-09
-1.20207e-09
-1.07665e-09
-9.38075e-10
-7.83167e-10
-6.11023e-10
-4.2524e-10
-1.2338e-10
1.68705e-09
8.756e-09
2.11147e-08
2.90725e-08
3.10383e-08
3.03894e-08
1.20005e-08
-2.27638e-09
-2.66022e-08
1.01212e-16
-8.81921e-18
-2.59358e-17
-2.18372e-16
-1.1429e-15
-3.4872e-15
-9.52634e-15
-2.73123e-14
-1.17933e-13
-5.41606e-12
-2.60699e-11
-7.11032e-11
-1.42867e-10
-2.36323e-10
-3.42227e-10
-4.51061e-10
-5.55459e-10
-6.50707e-10
-7.34097e-10
-8.04096e-10
-8.59888e-10
-9.01323e-10
-9.29035e-10
-9.4445e-10
-9.49542e-10
-9.46375e-10
-9.36557e-10
-9.20794e-10
-8.98646e-10
-8.68507e-10
-8.27837e-10
-7.73583e-10
-7.02652e-10
-6.12044e-10
-5.00128e-10
-3.67374e-10
-2.14442e-10
-4.32975e-11
1.01358e-09
2.43457e-08
4.43768e-08
4.50503e-08
4.06193e-08
1.28489e-08
1.66915e-09
7.59503e-10
7.58947e-17
7.56404e-18
-1.122e-17
-1.41848e-16
-8.01762e-16
-2.66959e-15
-8.09806e-15
-2.49818e-14
-7.67138e-14
-6.09249e-13
-2.72724e-12
-8.11906e-12
-1.88004e-11
-3.67368e-11
-6.33584e-11
-9.90649e-11
-1.42914e-10
-1.9266e-10
-2.45183e-10
-2.97175e-10
-3.45852e-10
-3.89455e-10
-4.27388e-10
-4.59981e-10
-4.88015e-10
-5.12177e-10
-5.32635e-10
-5.48817e-10
-5.59417e-10
-5.62563e-10
-5.56087e-10
-5.37871e-10
-5.06072e-10
-4.59134e-10
-3.96817e-10
-3.22035e-10
-2.38346e-10
-1.50664e-10
-6.36808e-11
2.85212e-10
2.17523e-08
4.43455e-08
3.89155e-08
1.18902e-08
-1.34167e-12
-4.54545e-13
1.2022e-17
7.69096e-19
-8.02438e-18
-9.73379e-17
-5.76302e-16
-2.08242e-15
-6.89834e-15
-2.23478e-14
-6.68027e-14
-1.75806e-13
-5.36705e-13
-1.75473e-12
-4.96122e-12
-1.15727e-11
-2.27965e-11
-3.91518e-11
-6.0246e-11
-8.49001e-11
-1.11551e-10
-1.38752e-10
-1.65571e-10
-1.91743e-10
-2.17528e-10
-2.43363e-10
-2.69457e-10
-2.95494e-10
-3.20519e-10
-3.43042e-10
-3.61274e-10
-3.73406e-10
-3.77884e-10
-3.73619e-10
-3.59981e-10
-3.36388e-10
-3.02362e-10
-2.59413e-10
-2.1177e-10
-1.64736e-10
-1.22621e-10
-8.77272e-11
-6.05329e-11
-4.01159e-11
-2.19529e-11
1.64151e-12
2.40087e-12
2.13676e-12
2.67932e-19
-3.41765e-19
-6.25255e-18
-6.89453e-17
-4.2002e-16
-1.63248e-15
-5.78176e-15
-1.92455e-14
-5.7274e-14
-1.47939e-13
-4.10125e-13
-1.19763e-12
-3.11638e-12
-6.84067e-12
-1.28402e-11
-2.11878e-11
-3.15553e-11
-4.33936e-11
-5.62113e-11
-6.98188e-11
-8.44251e-11
-1.00528e-10
-1.18636e-10
-1.38934e-10
-1.61045e-10
-1.83962e-10
-2.06192e-10
-2.26025e-10
-2.41839e-10
-2.52357e-10
-2.56798e-10
-2.54933e-10
-2.4706e-10
-2.33913e-10
-2.16535e-10
-1.9612e-10
-1.73879e-10
-1.50926e-10
-1.282e-10
-1.06411e-10
-8.60313e-11
-6.73186e-11
-5.02899e-11
-3.49009e-11
-2.10317e-11
-8.06281e-12
-1.10825e-21
-3.77266e-19
-4.76045e-18
-4.93818e-17
-3.05987e-16
-1.26401e-15
-4.68546e-15
-1.57509e-14
-4.62435e-14
-1.16711e-13
-3.0151e-13
-8.02478e-13
-1.92665e-12
-3.96097e-12
-7.0424e-12
-1.11174e-11
-1.6019e-11
-2.16237e-11
-2.80101e-11
-3.55323e-11
-4.475e-11
-5.62149e-11
-7.01897e-11
-8.64212e-11
-1.04073e-10
-1.21845e-10
-1.38236e-10
-1.51836e-10
-1.6157e-10
-1.66837e-10
-1.67527e-10
-1.63952e-10
-1.56721e-10
-1.46608e-10
-1.34426e-10
-1.20941e-10
-1.06812e-10
-9.2567e-11
-7.85996e-11
-6.51779e-11
-5.24591e-11
-4.05214e-11
-2.93234e-11
-1.88865e-11
-8.94482e-12
0
-1.07526e-20
-2.86075e-19
-3.55751e-18
-3.51552e-17
-2.19598e-16
-9.50861e-16
-3.62008e-15
-1.21323e-14
-3.49064e-14
-8.57678e-14
-2.08691e-13
-5.1168e-13
-1.13595e-12
-2.18372e-12
-3.67399e-12
-5.56647e-12
-7.84582e-12
-1.06247e-11
-1.42088e-11
-1.90709e-11
-2.5712e-11
-3.44425e-11
-4.51748e-11
-5.7329e-11
-6.99065e-11
-8.17028e-11
-9.15724e-11
-9.86512e-11
-1.02479e-10
-1.03009e-10
-1.00536e-10
-9.55806e-11
-8.87657e-11
-8.07167e-11
-7.19925e-11
-6.30482e-11
-5.42243e-11
-4.57543e-11
-3.77805e-11
-3.03706e-11
-2.35351e-11
-1.72515e-11
-1.15214e-11
-6.19171e-12
-1.3928e-12
5.6721e-12
-1.04351e-20
-2.02375e-19
-2.58367e-18
-2.44924e-17
-1.53154e-16
-6.85262e-16
-2.63833e-15
-8.73162e-15
-2.44958e-14
-5.84174e-14
-1.34399e-13
-3.04988e-13
-6.26695e-13
-1.12703e-12
-1.80263e-12
-2.65776e-12
-3.76584e-12
-5.32214e-12
-7.65035e-12
-1.11332e-11
-1.60682e-11
-2.24975e-11
-3.00966e-11
-3.8191e-11
-4.59032e-11
-5.23682e-11
-5.69282e-11
-5.92431e-11
-5.93025e-11
-5.7361e-11
-5.38372e-11
-4.92114e-11
-4.39453e-11
-3.84322e-11
-3.29741e-11
-2.77807e-11
-2.29807e-11
-1.8639e-11
-1.47739e-11
-1.13741e-11
-8.4143e-12
-5.85554e-12
-3.67005e-12
-1.84966e-12
-3.54969e-13
1.59769e-12
-7.92608e-21
-1.38829e-19
-1.80136e-18
-1.64733e-17
-1.02542e-16
-4.6778e-16
-1.79923e-15
-5.83898e-15
-1.59095e-14
-3.6726e-14
-7.99941e-14
-1.68394e-13
-3.20727e-13
-5.42048e-13
-8.3595e-13
-1.23586e-12
-1.84045e-12
-2.83253e-12
-4.4581e-12
-6.9509e-12
-1.04166e-11
-1.47281e-11
-1.94963e-11
-2.41477e-11
-2.80783e-11
-3.08121e-11
-3.21016e-11
-3.19446e-11
-3.05359e-11
-2.81845e-11
-2.52339e-11
-2.20005e-11
-1.87393e-11
-1.56326e-11
-1.27942e-11
-1.02817e-11
-8.1119e-12
-6.27463e-12
-4.74424e-12
-3.48846e-12
-2.47263e-12
-1.66478e-12
-1.035e-12
-5.53524e-13
-1.9266e-13
1.09617e-13
-5.39108e-21
-9.17704e-20
-1.19318e-18
-1.05733e-17
-6.52111e-17
-2.99726e-16
-1.1409e-15
-3.61134e-15
-9.52598e-15
-2.1235e-14
-4.38165e-14
-8.57751e-14
-1.52135e-13
-2.44759e-13
-3.74831e-13
-5.82138e-13
-9.51702e-13
-1.6152e-12
-2.72309e-12
-4.38277e-12
-6.58218e-12
-9.14186e-12
-1.17351e-11
-1.39778e-11
-1.55446e-11
-1.6255e-11
-1.60987e-11
-1.52044e-11
-1.378e-11
-1.2052e-11
-1.02211e-11
-8.43993e-12
-6.8081e-12
-5.37855e-12
-4.16889e-12
-3.17321e-12
-2.37206e-12
-1.73978e-12
-1.2493e-12
-8.75029e-13
-5.94138e-13
-3.86963e-13
-2.37032e-13
-1.30835e-13
-5.56834e-14
-6.93147e-15
-3.4057e-21
-5.77859e-20
-7.44641e-19
-6.41319e-18
-3.90274e-17
-1.78919e-16
-6.69118e-16
-2.05723e-15
-5.23928e-15
-1.12544e-14
-2.20206e-14
-4.02715e-14
-6.72611e-14
-1.05739e-13
-1.68275e-13
-2.87122e-13
-5.20365e-13
-9.46812e-13
-1.64194e-12
-2.63595e-12
-3.87243e-12
-5.1972e-12
-6.3951e-12
-7.26079e-12
-7.6655e-12
-7.58701e-12
-7.09665e-12
-6.3203e-12
-5.3958e-12
-4.44208e-12
-3.54442e-12
-2.75291e-12
-2.08849e-12
-1.55179e-12
-1.13145e-12
-8.1048e-13
-5.70619e-13
-3.94716e-13
-2.6792e-13
-1.78017e-13
-1.15318e-13
-7.23518e-14
-4.34296e-14
-2.43661e-14
-1.2183e-14
-4.60198e-15
-2.01747e-21
-3.43187e-20
-4.34822e-19
-3.64477e-18
-2.1801e-17
-9.88561e-17
-3.6116e-16
-1.07496e-15
-2.63721e-15
-5.44967e-15
-1.01315e-14
-1.74559e-14
-2.80343e-14
-4.48508e-14
-7.76932e-14
-1.47476e-13
-2.87624e-13
-5.38197e-13
-9.29254e-13
-1.45694e-12
-2.06603e-12
-2.65551e-12
-3.1109e-12
-3.34693e-12
-3.33567e-12
-3.10723e-12
-2.72886e-12
-2.27768e-12
-1.81989e-12
-1.40083e-12
-1.04441e-12
-7.57669e-13
-5.36824e-13
-3.72574e-13
-2.53859e-13
-1.7008e-13
-1.12151e-13
-7.28107e-14
-4.65259e-14
-2.92318e-14
-1.80218e-14
-1.08634e-14
-6.36572e-15
-3.58867e-15
-1.90613e-15
-9.19082e-16
-1.12042e-21
-1.9063e-20
-2.36044e-19
-1.92573e-18
-1.12802e-17
-5.02419e-17
-1.78505e-16
-5.12956e-16
-1.21012e-15
-2.40322e-15
-4.26125e-15
-7.01407e-15
-1.11841e-14
-1.9061e-14
-3.67035e-14
-7.55578e-14
-1.52173e-13
-2.83779e-13
-4.78673e-13
-7.24853e-13
-9.85188e-13
-1.20635e-12
-1.3393e-12
-1.35923e-12
-1.2727e-12
-1.10999e-12
-9.10111e-13
-7.07597e-13
-5.2572e-13
-3.75794e-13
-2.59966e-13
-1.74906e-13
-1.14923e-13
-7.39919e-14
-4.68057e-14
-2.91507e-14
-1.79017e-14
-1.08513e-14
-6.49591e-15
-3.84047e-15
-2.24112e-15
-1.28911e-15
-7.29008e-16
-4.03397e-16
-2.1596e-16
-1.08108e-16
-5.80751e-22
-9.82553e-21
-1.18324e-19
-9.38585e-19
-5.36505e-18
-2.33375e-17
-8.03428e-17
-2.22432e-16
-5.04019e-16
-9.62028e-16
-1.63745e-15
-2.62871e-15
-4.32803e-15
-8.10803e-15
-1.711e-14
-3.6732e-14
-7.40409e-14
-1.35144e-13
-2.20517e-13
-3.20638e-13
-4.15979e-13
-4.83555e-13
-5.06992e-13
-4.83521e-13
-4.23527e-13
-3.44171e-13
-2.62046e-13
-1.88666e-13
-1.29522e-13
-8.54141e-14
-5.44535e-14
-3.37452e-14
-2.0422e-14
-1.21162e-14
-7.0696e-15
-4.06741e-15
-2.31225e-15
-1.30093e-15
-7.25275e-16
-4.00998e-16
-2.19949e-16
-1.19598e-16
-6.40532e-17
-3.29229e-17
-1.3294e-17
-5.14712e-20
-2.78937e-22
-4.65957e-21
-5.4356e-20
-4.18502e-19
-2.32654e-18
-9.83717e-18
-3.27202e-17
-8.71448e-17
-1.89617e-16
-3.4845e-16
-5.75037e-16
-9.24804e-16
-1.62926e-15
-3.36568e-15
-7.52817e-15
-1.63198e-14
-3.2318e-14
-5.71891e-14
-8.9798e-14
-1.24944e-13
-1.54305e-13
-1.69843e-13
-1.677e-13
-1.4981e-13
-1.22292e-13
-9.21943e-14
-6.48672e-14
-4.30201e-14
-2.71376e-14
-1.64142e-14
-9.58667e-15
-5.43948e-15
-3.014e-15
-1.6381e-15
-8.76531e-16
-4.63207e-16
-2.42379e-16
-1.25853e-16
-6.49589e-17
-3.33659e-17
-1.70213e-17
-8.44607e-18
-3.30207e-18
-9.936e-22
-1.41418e-19
1.08369e-18
-1.2294e-22
-2.01313e-21
-2.26752e-20
-1.69101e-19
-9.11416e-19
-3.73167e-18
-1.19663e-17
-3.06373e-17
-6.40726e-17
-1.13808e-16
-1.8466e-16
-3.06284e-16
-5.8875e-16
-1.31374e-15
-3.01386e-15
-6.46265e-15
-1.24456e-14
-2.12408e-14
-3.19945e-14
-4.25026e-14
-4.98688e-14
-5.1871e-14
-4.81238e-14
-4.01597e-14
-3.04539e-14
-2.12205e-14
-1.37413e-14
-8.35872e-15
-4.82368e-15
-2.66427e-15
-1.41938e-15
-7.34261e-16
-3.70975e-16
-1.83961e-16
-8.99133e-17
-4.34709e-17
-2.08533e-17
-9.95084e-18
-4.73055e-18
-2.2225e-18
-9.52485e-19
0
5.28539e-35
9.17229e-19
8.74143e-18
7.49269e-17
-4.90888e-23
-7.82798e-22
-8.49253e-21
-6.12164e-20
-3.19022e-19
-1.26121e-18
-3.89385e-18
-9.58633e-18
-1.93155e-17
-3.33808e-17
-5.41748e-17
-9.49458e-17
-1.98764e-16
-4.65085e-16
-1.06825e-15
-2.23873e-15
-4.16886e-15
-6.8407e-15
-9.86368e-15
-1.24895e-14
-1.39012e-14
-1.36426e-14
-1.1871e-14
-9.23335e-15
-6.48662e-15
-4.16473e-15
-2.47385e-15
-1.37565e-15
-7.23962e-16
-3.64091e-16
-1.76473e-16
-8.30442e-17
-3.81808e-17
-1.72439e-17
-7.68575e-18
-3.39405e-18
-1.48995e-18
-6.51327e-19
-2.78516e-19
-7.91102e-20
0
5.24225e-19
6.67838e-18
4.23722e-17
2.09635e-16
2.07347e-15
-1.74625e-23
-2.69729e-22
-2.8142e-21
-1.9574e-20
-9.8432e-20
-3.75073e-19
-1.11459e-18
-2.64253e-18
-5.15082e-18
-8.73869e-18
-1.44363e-17
-2.70637e-17
-6.05922e-17
-1.44693e-16
-3.27667e-16
-6.66561e-16
-1.19627e-15
-1.88346e-15
-2.59576e-15
-3.12873e-15
-3.29943e-15
-3.05107e-15
-2.48586e-15
-1.7983e-15
-1.16728e-15
-6.88453e-16
-3.73927e-16
-1.89494e-16
-9.06842e-17
-4.14228e-17
-1.82287e-17
-7.79016e-18
-3.25516e-18
-1.3377e-18
-5.4332e-19
-2.19008e-19
-8.77652e-20
-3.40084e-20
-1.94822e-21
2.23783e-20
5.86858e-19
5.25997e-18
4.02105e-17
3.28032e-16
2.34027e-15
2.24047e-14
-5.41409e-24
-8.07003e-23
-8.09436e-22
-5.42782e-21
-2.63129e-20
-9.66016e-20
-2.76602e-19
-6.3335e-19
-1.20087e-18
-2.02e-18
-3.44193e-18
-6.88415e-18
-1.60795e-17
-3.83994e-17
-8.49597e-17
-1.67155e-16
-2.886e-16
-4.35444e-16
-5.72975e-16
-6.56709e-16
-6.554e-16
-5.70271e-16
-4.34243e-16
-2.91429e-16
-1.74214e-16
-9.40262e-17
-4.65021e-17
-2.1384e-17
-9.26626e-18
-3.82854e-18
-1.52361e-18
-5.89072e-19
-2.22888e-19
-8.30432e-20
-3.06234e-20
-1.11981e-20
-3.86357e-21
0
1.27329e-20
2.46202e-19
2.36658e-18
2.14785e-17
2.07429e-16
2.06011e-15
1.60109e-14
1.35526e-13
-1.42092e-24
-2.04044e-23
-1.96973e-22
-1.27405e-21
-5.95773e-21
-2.1102e-20
-5.83753e-20
-1.29632e-19
-2.40526e-19
-4.04359e-19
-7.13564e-19
-1.50014e-18
-3.56834e-18
-8.40614e-18
-1.80891e-17
-3.43795e-17
-5.7081e-17
-8.25082e-17
-1.036e-16
-1.12814e-16
-1.06424e-16
-8.69839e-17
-6.17525e-17
-3.83157e-17
-2.09992e-17
-1.03151e-17
-4.61715e-18
-1.91421e-18
-7.46064e-19
-2.76915e-19
-9.89636e-20
-3.43698e-20
-1.16901e-20
-3.91905e-21
-1.29828e-21
-3.9081e-22
1.98029e-23
4.4145e-21
6.6596e-20
7.44724e-19
7.83312e-18
8.16204e-17
9.38628e-16
1.01333e-14
7.84577e-14
5.82534e-13
-3.03426e-25
-4.20252e-24
-3.91602e-23
-2.44926e-22
-1.10787e-21
-3.79919e-21
-1.01983e-20
-2.20704e-20
-4.02547e-20
-6.77641e-20
-1.22844e-19
-2.65465e-19
-6.29603e-19
-1.4505e-18
-3.03432e-18
-5.57992e-18
-8.92406e-18
-1.23736e-17
-1.48332e-17
-1.53423e-17
-1.3667e-17
-1.0473e-17
-6.91046e-18
-3.9462e-18
-1.97084e-18
-8.7472e-19
-3.51517e-19
-1.30284e-19
-4.52796e-20
-1.49677e-20
-4.76237e-21
-1.473e-21
-4.465e-22
-1.3316e-22
-3.47869e-23
2.15499e-23
8.66477e-22
1.16717e-20
1.51379e-19
1.84716e-18
2.1308e-17
2.60123e-16
3.47855e-15
3.89544e-14
2.92584e-13
1.93384e-12
-4.9895e-26
-6.6974e-25
-6.0549e-24
-3.68033e-23
-1.61913e-22
-5.40763e-22
-1.41659e-21
-2.99989e-21
-5.378e-21
-8.98292e-21
-1.63541e-20
-3.53352e-20
-8.17631e-20
-1.83192e-19
-3.74529e-19
-6.70878e-19
-1.0395e-18
-1.38921e-18
-1.59468e-18
-1.56922e-18
-1.32059e-18
-9.4791e-19
-5.79717e-19
-3.0316e-19
-1.36983e-19
-5.44468e-20
-1.94508e-20
-6.37836e-21
-1.95603e-21
-5.69828e-22
-1.59743e-22
-4.35491e-23
-1.16152e-23
-2.62524e-24
3.34725e-24
9.65643e-23
1.42006e-21
2.05971e-20
2.83638e-19
3.66804e-18
4.6612e-17
6.75876e-16
1.03125e-14
1.17857e-13
8.56836e-13
5.16089e-12
-5.8349e-27
-7.6532e-26
-6.7656e-25
-4.02848e-24
-1.738e-23
-5.69777e-23
-1.46516e-22
-3.03915e-22
-5.30543e-22
-8.54863e-22
-1.49243e-21
-3.0954e-21
-6.70126e-21
-1.44975e-20
-2.95744e-20
-5.26665e-20
-8.03804e-20
-1.04995e-19
-1.16469e-19
-1.09779e-19
-8.77623e-20
-5.92507e-20
-3.3629e-20
-1.60694e-20
-6.53164e-21
-2.30552e-21
-7.24913e-22
-2.0806e-22
-5.56721e-23
-1.41309e-23
-3.45036e-24
-8.17755e-25
-1.58521e-25
3.29171e-25
8.08324e-24
1.29851e-22
2.04054e-21
3.09494e-20
4.46423e-19
6.10195e-18
8.51547e-17
1.45366e-15
2.48432e-14
2.8837e-13
2.04254e-12
1.14789e-11
-4.21077e-28
-5.4765e-27
-4.79779e-26
-2.83423e-25
-1.21336e-24
-3.94107e-24
-9.99173e-24
-2.01884e-23
-3.33984e-23
-4.8354e-23
-7.1693e-23
-1.27702e-22
-2.01855e-22
-3.96198e-22
-9.30364e-22
-1.83363e-21
-2.96548e-21
-3.99908e-21
-4.41043e-21
-4.06508e-21
-3.14702e-21
-2.03757e-21
-1.08863e-21
-4.79101e-22
-1.75511e-22
-5.48999e-23
-1.51385e-23
-3.78718e-24
-8.79865e-25
-1.9351e-25
-4.08089e-26
-6.52519e-27
2.38584e-26
5.3274e-25
9.38211e-24
1.59303e-22
2.62219e-21
4.1721e-20
6.30728e-19
9.05483e-18
1.37448e-16
2.68515e-15
5.04e-14
5.93687e-13
4.13999e-12
2.2118e-11
-1.3344e-29
-1.77775e-28
-1.58368e-27
-9.48984e-27
-4.10309e-26
-1.33537e-25
-3.34211e-25
-6.45836e-25
-9.44561e-25
-9.6273e-25
-4.27862e-25
6.77769e-25
9.60152e-24
2.46627e-23
3.47071e-23
3.8524e-23
3.28445e-23
1.77648e-23
9.16767e-24
4.06393e-24
8.53753e-25
-9.37692e-25
-7.54151e-25
-2.06471e-25
8.86586e-27
2.87058e-26
8.78242e-27
1.49932e-28
7.72223e-48
3.85664e-30
7.07019e-29
1.44505e-27
2.91574e-26
5.56058e-25
1.03157e-23
1.84282e-22
3.20422e-21
5.37161e-20
8.51334e-19
1.27428e-17
2.07e-16
4.4438e-15
8.95396e-14
1.07209e-12
7.44851e-12
3.8232e-11
-3.45994e-50
-1.50395e-50
-5.89467e-53
-1.92e-55
3.14726e-94
-4.51951e-78
7.62505e-33
7.72271e-32
1.74664e-31
2.79111e-31
1.19829e-32
1.73688e-34
9.68317e-34
4.65124e-33
9.41109e-29
2.93415e-25
1.43115e-26
9.00251e-30
1.25025e-29
4.3887e-29
1.22706e-26
2.94602e-26
5.20062e-27
5.64469e-30
1.24448e-32
6.46396e-33
4.23807e-34
3.54511e-33
8.97927e-32
2.29525e-30
5.59057e-29
1.26138e-27
2.73875e-26
5.66025e-25
1.11389e-23
2.12398e-22
3.92526e-21
6.95359e-20
1.1506e-18
1.78159e-17
3.02595e-16
6.83665e-15
1.44163e-13
1.76246e-12
1.23214e-11
6.09134e-11
-1.62676e-50
-9.69605e-51
-2.99719e-53
-7.59796e-56
1.99316e-55
7.44259e-52
7.02051e-47
1.78595e-40
1.49241e-35
1.55021e-32
2.16828e-34
2.57992e-35
1.62738e-34
4.60626e-35
7.63317e-35
2.3618e-34
7.2342e-34
3.42784e-33
1.99577e-33
1.25928e-33
9.13564e-33
4.2808e-33
7.10619e-35
3.46582e-36
2.71924e-36
6.63074e-36
1.0352e-34
2.90745e-33
7.92763e-32
2.04102e-30