/*--------------------------------*- C++ -*----------------------------------*\
  =========                 |
  \\      /  F ield         | OpenFOAM: The Open Source CFD Toolbox
   \\    /   O peration     | Website:  https://openfoam.org
    \\  /    A nd           | Version:  7
     \\/     M anipulation  |
\*---------------------------------------------------------------------------*/
FoamFile
{
    version     2.0;
    format      ascii;
    class       volScalarField;
    location    "0.4";
    object      epsilon;
}
// * * * * * * * * * * * * * * * * * * * * * * * * * * * * * * * * * * * * * //

dimensions      [0 2 -3 0 0 0 0];

internalField   nonuniform List<scalar> 
9072
(
0.0280862
0.0914849
0.170557
0.251923
0.326103
0.399573
0.468864
0.535945
0.602068
0.668359
0.735697
0.804672
0.87559
0.948489
1.02319
1.09931
1.17633
1.25361
1.33041
1.40592
1.47926
1.54953
1.6158
1.67709
1.73244
1.78088
1.82143
1.85315
1.87507
1.88615
1.88485
1.872
1.85051
1.8162
1.76707
1.70188
1.62004
1.52224
1.41179
1.29552
1.17915
1.07484
0.916459
0.776076
0.642409
0.478726
0.0371292
0.0590398
0.0909587
0.124223
0.155221
0.182849
0.208365
0.232656
0.256384
0.280079
0.304138
0.328831
0.354309
0.380622
0.407733
0.435533
0.463858
0.492494
0.521194
0.549682
0.577667
0.604841
0.630891
0.655506
0.678376
0.699207
0.717724
0.733687
0.746894
0.757202
0.764567
0.770536
0.776853
0.783098
0.78962
0.79734
0.80759
0.821895
0.841534
0.866247
0.888394
0.890763
0.793445
0.610124
0.478853
0.537425
0.0484009
0.0559781
0.0799236
0.104636
0.126553
0.145886
0.163359
0.179637
0.195271
0.210703
0.226258
0.242157
0.258531
0.275439
0.292875
0.310784
0.329073
0.347615
0.366262
0.384846
0.403188
0.421101
0.438398
0.454892
0.470408
0.484783
0.497883
0.509608
0.519912
0.528825
0.536527
0.543814
0.551891
0.561384
0.573288
0.589112
0.610939
0.641442
0.683633
0.739592
0.803673
0.850143
0.819754
0.682537
0.575543
0.786424
0.0552383
0.0585469
0.0791445
0.0994632
0.117591
0.13356
0.147839
0.160963
0.173413
0.185579
0.197749
0.21012
0.222813
0.235883
0.249338
0.263143
0.277232
0.291512
0.305876
0.320199
0.334349
0.348189
0.361582
0.374398
0.386514
0.397827
0.408261
0.41778
0.426405
0.434246
0.441557
0.448958
0.457418
0.467815
0.481353
0.499695
0.525048
0.560185
0.608257
0.671681
0.746486
0.809194
0.81458
0.745417
0.692148
1.06604
0.0618349
0.063846
0.0815611
0.0990353
0.114763
0.128683
0.141124
0.152515
0.163265
0.173707
0.184093
0.194597
0.205326
0.216331
0.227623
0.239176
0.250937
0.262833
0.274778
0.286671
0.298407
0.309877
0.320974
0.331597
0.341657
0.351086
0.359843
0.367931
0.375415
0.382446
0.389323
0.396614
0.405183
0.41598
0.430274
0.449745
0.476544
0.51327
0.562734
0.626923
0.702741
0.771689
0.801235
0.790699
0.820264
1.40879
0.0708368
0.0704696
0.0856513
0.100807
0.114601
0.126946
0.138073
0.14831
0.157986
0.167375
0.176686
0.186065
0.195603
0.205343
0.215294
0.225434
0.235719
0.246088
0.256467
0.266771
0.276914
0.286804
0.296357
0.305491
0.314141
0.322262
0.329839
0.336904
0.34355
0.349962
0.356463
0.363602
0.372196
0.383207
0.39791
0.417949
0.445366
0.482534
0.53187
0.594885
0.669115
0.741232
0.790258
0.828232
0.94216
1.76954
0.0804193
0.0776675
0.0906074
0.103678
0.115749
0.12674
0.136802
0.146172
0.155095
0.16378
0.172391
0.181042
0.189806
0.198715
0.207773
0.21696
0.226237
0.235549
0.244831
0.254013
0.263019
0.271774
0.280206
0.288252
0.295863
0.303014
0.30971
0.316004
0.322012
0.327942
0.334136
0.341134
0.349722
0.360858
0.375793
0.396117
0.423754
0.460874
0.50958
0.571082
0.643587
0.718392
0.78452
0.863068
1.05458
2.12171
0.0897379
0.084844
0.0958212
0.106999
0.117507
0.127292
0.136446
0.145119
0.153475
0.161661
0.169793
0.177953
0.186193
0.194533
0.202971
0.211486
0.220041
0.228586
0.237066
0.245415
0.253571
0.261469
0.26905
0.276264
0.283078
0.289481
0.295495
0.30119
0.306702
0.312255
0.318204
0.325082
0.333658
0.344867
0.359931
0.380376
0.408025
0.444886
0.492863
0.553076
0.624511
0.702378
0.783962
0.897921
1.1607
2.46449
0.0983777
0.0915649
0.100838
0.110337
0.119454
0.128176
0.136546
0.144642
0.152554
0.160371
0.168163
0.175983
0.183859
0.1918
0.199797
0.207825
0.215848
0.223821
0.231691
0.239405
0.246905
0.254137
0.261052
0.267614
0.273799
0.279611
0.285087
0.290311
0.295432
0.300691
0.306448
0.313233
0.321794
0.333044
0.34817
0.368638
0.396183
0.432707
0.48002
0.539336
0.610524
0.692086
0.788031
0.934123
1.26374
2.83947
0.106228
0.0976181
0.105376
0.113418
0.121332
0.129138
0.136841
0.144455
0.152012
0.159547
0.167093
0.174672
0.182292
0.189949
0.197625
0.205293
0.212917
0.220453
0.227855
0.235072
0.242055
0.24876
0.255146
0.261185
0.266868
0.272208
0.277255
0.282105
0.286921
0.291951
0.297563
0.304279
0.312826
0.324098
0.33924
0.359667
0.387046
0.423215
0.469986
0.528803
0.600502
0.686394
0.795985
0.971586
1.36424
3.22199
0.11346
0.102979
0.109317
0.116102
0.123
0.130035
0.137176
0.14439
0.151658
0.158974
0.166336
0.173742
0.181179
0.188631
0.196073
0.203473
0.210793
0.217993
0.225027
0.231852
0.238424
0.244706
0.250665
0.256285
0.261563
0.266524
0.271229
0.275785
0.280363
0.28522
0.290725
0.297395
0.305935
0.317214
0.332344
0.352688
0.379865
0.415689
0.462037
0.520693
0.593494
0.68423
0.807021
1.01043
1.46498
3.61547
0.120497
0.107736
0.11267
0.118356
0.124402
0.130796
0.137469
0.144347
0.151377
0.158518
0.165741
0.173019
0.180324
0.187628
0.194897
0.202096
0.209184
0.216121
0.222866
0.229378
0.235621
0.241562
0.247177
0.252457
0.25741
0.262068
0.266502
0.270829
0.275226
0.279957
0.285391
0.292037
0.300576
0.311857
0.326954
0.34719
0.374147
0.409639
0.45566
0.514389
0.588685
0.684582
0.820297
1.05095
1.57126
4.04957
0.127167
0.112012
0.115526
0.120224
0.125545
0.131399
0.137676
0.14427
0.151099
0.158096
0.165209
0.172391
0.179601
0.186797
0.193938
0.200985
0.207894
0.214627
0.221143
0.227406
0.233383
0.239049
0.244387
0.249394
0.254086
0.258505
0.262728
0.266881
0.271148
0.275795
0.281189
0.28783
0.29638
0.307662
0.322716
0.342829
0.369555
0.404727
0.450477
0.509401
0.585361
0.686471
0.834839
1.09332
1.69015
4.54977
0.13373
0.115979
0.118015
0.12179
0.12647
0.131854
0.137784
0.144129
0.150781
0.157656
0.164679
0.171788
0.178927
0.186044
0.193091
0.200022
0.206794
0.213366
0.219701
0.225765
0.231529
0.236974
0.24209
0.246879
0.251365
0.255598
0.259663
0.26369
0.26787
0.272471
0.277856
0.284514
0.293087
0.304375
0.319386
0.339371
0.365864
0.40072
0.446214
0.505343
0.5829
0.68892
0.849335
1.13687
1.82895
5.14934
0.140459
0.119807
0.120279
0.123154
0.127234
0.132185
0.137796
0.14391
0.150402
0.157167
0.164114
0.171165
0.17825
0.185309
0.192285
0.199129
0.205796
0.212243
0.218434
0.224339
0.229933
0.235202
0.240141
0.244758
0.249086
0.253179
0.25713
0.261076
0.26521
0.269799
0.275204
0.281903
0.290517
0.301822
0.316796
0.336659
0.362923
0.397466
0.442683
0.501923
0.580776
0.690934
0.861884
1.17841
1.98387
5.89097
0.147659
0.123644
0.122442
0.124408
0.127894
0.132419
0.13772
0.143613
0.149953
0.156616
0.163496
0.170498
0.177542
0.184557
0.191481
0.198259
0.204844
0.211193
0.217271
0.22305
0.228509
0.233639
0.238439
0.242925
0.247134
0.251128
0.255005
0.258907
0.263031
0.267643
0.273098
0.279864
0.28854
0.299879
0.314832
0.334589
0.360639
0.39487
0.439768
0.498945
0.578581
0.691564
0.869932
1.20929
2.11903
6.92762
0.0599032
0.141706
0.217782
0.268048
0.305425
0.336343
0.363749
0.389078
0.411491
0.429878
0.444077
0.453963
0.459406
0.460315
0.456365
0.447294
0.434435
0.41853
0.400328
0.380584
0.360048
0.339431
0.319353
0.300286
0.282525
0.266403
0.252305
0.239498
0.227366
0.215284
0.202583
0.188524
0.172291
0.152963
0.129486
0.100739
0.0671112
0.0370663
0.0185004
0.107928
0.154021
0.17904
0.194177
0.205754
0.216367
0.226979
0.237058
0.245363
0.251511
0.255264
0.256497
0.25514
0.250979
0.24408
0.235344
0.225264
0.214328
0.203003
0.191728
0.180891
0.1708
0.16166
0.153573
0.146705
0.141051
0.136098
0.131419
0.126581
0.121124
0.114546
0.106291
0.0957421
0.0822161
0.065053
0.0433168
0.0152552
0.104645
0.111538
0.140851
0.156456
0.164683
0.170851
0.177063
0.183842
0.190465
0.195952
0.199865
0.201926
0.202007
0.200036
0.195854
0.189671
0.182159
0.173715
0.16473
0.15558
0.146619
0.138159
0.130449
0.123657
0.117867
0.113137
0.109445
0.106422
0.103714
0.100942
0.0976939
0.093522
0.0879393
0.0804293
0.0704602
0.0576032
0.0409257
0.0174203
0.154142
0.121822
0.140196
0.150971
0.156331
0.160421
0.164972
0.170262
0.175453
0.179695
0.182538
0.183697
0.183048
0.180526
0.176011
0.169816
0.162502
0.154419
0.14592
0.137342
0.129005
0.121197
0.114148
0.10802
0.102902
0.098823
0.0957536
0.0934048
0.0914589
0.0895586
0.0873101
0.084287
0.0800379
0.074109
0.0660884
0.0558017
0.0432118
0.0185547
0.203399
0.135764
0.145649
0.153312
0.157294
0.160523
0.164412
0.169067
0.173544
0.177058
0.179166
0.179596
0.178238
0.175044
0.169933
0.163319
0.1557
0.147405
0.138766
0.130105
0.121726
0.113905
0.106867
0.100774
0.095721
0.0917358
0.0887872
0.0866349
0.0849834
0.0834883
0.0817643
0.0793965
0.0759577
0.0710448
0.064354
0.0559778
0.0476027
0.0787697
0.254376
0.152847
0.155494
0.160818
0.164097
0.167058
0.170789
0.175241
0.179334
0.18232
0.183779
0.183463
0.181291
0.177248
0.171292
0.163955
0.155689
0.146819
0.137667
0.128545
0.119754
0.111561
0.104189
0.0978034
0.0925021
0.0883177
0.085223
0.08301
0.0813993
0.0800563
0.0786017
0.0766287
0.0737296
0.0695454
0.0638699
0.0570159
0.0515155
0.0809598
0.308748
0.173213
0.169307
0.172673
0.17563
0.178696
0.18262
0.187146
0.191038
0.193564
0.19434
0.193161
0.189995
0.18487
0.1778
0.169452
0.160243
0.150498
0.140537
0.13067
0.121195
0.112375
0.104433
0.0975311
0.0917723
0.0871929
0.0837715
0.0813223
0.0795789
0.0782159
0.07686
0.075112
0.0725814
0.0689485
0.0640923
0.058503
0.0552776
0.0893698
0.368119
0.197383
0.187255
0.18886
0.191784
0.195278
0.199726
0.204536
0.208333
0.21038
0.210346
0.208098
0.20367
0.197158
0.188656
0.17898
0.168518
0.157598
0.146544
0.135668
0.125263
0.115593
0.106875
0.0992721
0.0928851
0.0877527
0.0838586
0.0810317
0.0790158
0.0774949
0.0761032
0.0744497
0.0721598
0.0689486
0.0647679
0.060253
0.0589804
0.0999257
0.434222
0.226251
0.209991
0.209947
0.213156
0.217427
0.222746
0.228037
0.23178
0.233229
0.232143
0.228498
0.222426
0.214108
0.20378
0.192391
0.180311
0.167879
0.155421
0.14325
0.13166
0.12091
0.111214
0.102729
0.0955514
0.0897196
0.085219
0.0818865
0.0794726
0.0776706
0.0761236
0.0744507
0.0722926
0.0693945
0.0657688
0.0621725
0.0626352
0.111058
0.50899
0.261206
0.238776
0.237192
0.241139
0.246624
0.253193
0.25913
0.262739
0.263314
0.260755
0.255201
0.246924
0.236222
0.223548
0.209953
0.195803
0.181446
0.167212
0.153416
0.140348
0.128263
0.117364
0.107801
0.099664
0.0929831
0.0877427
0.0837799
0.0808472
0.0786458
0.0768295
0.0750285
0.0728994
0.0702134
0.0670325
0.0642182
0.0662467
0.12227
0.594587
0.304433
0.275869
0.272979
0.278356
0.285599
0.293811
0.300389
0.303541
0.30268
0.297926
0.289663
0.278356
0.264451
0.248728
0.232273
0.215463
0.198655
0.182183
0.166357
0.151459
0.137733
0.125371
0.114508
0.105221
0.0975276
0.0914068
0.0866861
0.0831134
0.080395
0.0781952
0.0761573
0.073954
0.0713794
0.0685358
0.0663775
0.069829
0.133456
0.693483
0.359658
0.325354
0.321748
0.329564
0.33912
0.349192
0.355966
0.357826
0.35446
0.346298
0.334069
0.3185
0.300238
0.280492
0.260287
0.24003
0.220087
0.200784
0.182417
0.165252
0.149513
0.135373
0.122945
0.112285
0.103395
0.09624
0.0906268
0.0862897
0.0829349
0.0802359
0.0778498
0.0754655
0.072898
0.0702827
0.0686587
0.0734058
0.144642
0.808764
0.433897
0.39476
0.391925
0.403367
0.41538
0.4268
0.432287
0.431036
0.423217
0.409646
0.3915
0.369842
0.345616
0.320477
0.295299
0.270535
0.246551
0.223645
0.202083
0.182099
0.163883
0.147577
0.133262
0.120966
0.110663
0.1023
0.0956496
0.0904189
0.0863064
0.082991
0.080143
0.0774674
0.0747981
0.0722985
0.0710873
0.0770105
0.155904
0.945822
0.541455
0.498268
0.499764
0.515229
0.528159
0.538306
0.538871
0.530919
0.515289
0.493126
0.466114
0.435694
0.403354
0.370871
0.339038
0.308338
0.279108
0.251592
0.225992
0.202483
0.181203
0.162245
0.145647
0.131391
0.119418
0.109652
0.101807
0.0955487
0.0905563
0.0865089
0.0830868
0.0800094
0.0771274
0.0746283
0.0737081
0.0806925
0.16735
1.13063
0.713865
0.663675
0.676519
0.691897
0.699433
0.700664
0.688775
0.667706
0.638863
0.603337
0.563208
0.5204
0.476987
0.434476
0.393714
0.355168
0.319104
0.28566
0.254929
0.226991
0.2019
0.179679
0.160299
0.143687
0.129733
0.118337
0.10913
0.101705
0.0957127
0.090824
0.0867239
0.0831422
0.0799426
0.077333
0.0765878
0.0845317
0.179137
1.65917
1.055
0.947556
0.976371
0.973967
0.959851
0.93499
0.897344
0.853056
0.803161
0.747698
0.688849
0.629177
0.570604
0.514576
0.461926
0.413062
0.36812
0.327065
0.289816
0.256303
0.226457
0.2002
0.177417
0.157953
0.141635
0.128355
0.117604
0.108871
0.101762
0.0959326
0.0910643
0.0868915
0.0832857
0.080472
0.0798105
0.0886661
0.191565
0.156769
0.128478
0.125217
0.126025
0.128714
0.132647
0.137508
0.143085
0.149205
0.155722
0.162505
0.169441
0.176432
0.183394
0.190256
0.196956
0.203444
0.209675
0.215616
0.221242
0.226537
0.231499
0.236134
0.240467
0.244541
0.248431
0.252241
0.256121
0.26027
0.264954
0.27052
0.277415
0.286215
0.29764
0.312594
0.332219
0.357966
0.391715
0.436024
0.494744
0.574561
0.689156
0.871185
1.21338
2.02268
4.32956
0.171162
0.135924
0.129472
0.128403
0.129784
0.13278
0.136978
0.1421
0.147921
0.154247
0.160912
0.167775
0.174715
0.181633
0.188445
0.195084
0.201493
0.207629
0.213458
0.218959
0.224124
0.228956
0.233473
0.237707
0.241712
0.245572
0.249404
0.253364
0.257656
0.262539
0.268344
0.275496
0.284533
0.296133
0.311142
0.330636
0.355989
0.388992
0.432096
0.488964
0.565782
0.674415
0.840374
1.12499
1.68616
2.89847
0.185277
0.143433
0.133868
0.130744
0.1307
0.13272
0.136261
0.14095
0.146494
0.152648
0.159209
0.166007
0.172905
0.179789
0.186568
0.193167
0.199528
0.205606
0.211368
0.216797
0.221889
0.226655
0.23112
0.235324
0.239327
0.243223
0.247136
0.251233
0.255718
0.260843
0.266922
0.274355
0.283644
0.29542
0.310473
0.329802
0.354671
0.386705
0.428073
0.481905
0.553231
0.650922
0.791839
1.01015
1.3772
2.00165
0.195953
0.149747
0.137425
0.132401
0.131146
0.132388
0.135418
0.139772
0.145098
0.151112
0.157581
0.16432
0.171175
0.178026
0.184775
0.191344
0.197671
0.203711
0.209433
0.214821
0.219876
0.224615
0.229066
0.233277
0.237314
0.241274
0.245294
0.249546
0.254235
0.259608
0.265963
0.273678
0.283226
0.295189
0.310295
0.329445
0.353764
0.384656
0.423916
0.474003
0.538677
0.624048
0.740309
0.904692
1.14464
1.47905
0.199308
0.153014
0.138659
0.132564
0.130796
0.131713
0.134499
0.138666
0.143851
0.149759
0.156149
0.162829
0.169639
0.176455
0.183174
0.189717
0.196019
0.202036
0.207736
0.213107
0.218151
0.222889
0.227352
0.231591
0.235676
0.239713
0.243844
0.248249
0.253133
0.258734
0.265348
0.273349
0.283194
0.295422
0.310674
0.329725
0.353519
0.383205
0.420186
0.466256
0.524082
0.5977
0.692898
0.817567
0.980461
1.17949
0.193953
0.152743
0.13733
0.131323
0.129832
0.130854
0.133627
0.137734
0.142847
0.148685
0.155015
0.161647
0.168422
0.175211
0.181911
0.18844
0.194733
0.200743
0.206441
0.211816
0.216872
0.221629
0.22612
0.230392
0.234522
0.238626
0.242859
0.247403
0.252455
0.258233
0.265052
0.27333
0.283549
0.296217
0.311849
0.331026
0.354455
0.382997
0.417693
0.459773
0.51111
0.574349
0.652561
0.748871
0.865077
0.996105
0.186537
0.153205
0.13649
0.130356
0.129178
0.130328
0.133129
0.13722
0.142295
0.148091
0.154385
0.16099
0.16775
0.174532
0.181234
0.18777
0.194071
0.200091
0.205802
0.211191
0.216271
0.221061
0.225586
0.229884
0.234036
0.238184
0.242513
0.247216
0.252457
0.258337
0.265243
0.273742
0.284424
0.297791
0.314118
0.333696
0.357024
0.384595
0.417133
0.455463
0.501071
0.555652
0.620556
0.696614
0.783425
0.87671
0.249807
0.166457
0.140359
0.132205
0.130155
0.130995
0.133654
0.137659
0.142677
0.148433
0.154699
0.161283
0.168028
0.1748
0.181495
0.188025
0.194323
0.200341
0.20605
0.211441
0.216522
0.221312
0.225832
0.230121
0.234261
0.238396
0.242704
0.247486
0.253314
0.259299
0.266148
0.274776
0.286131
0.3011
0.31906
0.339024
0.362182
0.388729
0.418898
0.453666
0.494761
0.542662
0.597311
0.658719
0.726171
0.796524
0.585992
0.277578
0.227933
0.201156
0.185174
0.17953
0.178203
0.179044
0.181395
0.184899
0.189242
0.194205
0.199635
0.205407
0.211411
0.21755
0.223752
0.229966
0.236161
0.24232
0.248422
0.254439
0.26035
0.266137
0.271741
0.27695
0.280879
0.280714
0.267207
0.263716
0.268519
0.276508
0.287499
0.302054
0.319661
0.341446
0.373338
0.400828
0.425206
0.455477
0.493671
0.536586
0.58276
0.63331
0.687712
0.743167
0.789817
0.363561
0.287244
0.247341
0.229774
0.222232
0.218756
0.217306
0.217249
0.218334
0.22039
0.223283
0.226898
0.231128
0.235875
0.241054
0.2466
0.252465
0.258628
0.265085
0.271844
0.278919
0.286343
0.294175
0.30249
0.311296
0.320245
0.3284
0.335568
0.345103
0.357545
0.371439
0.38547
0.39805
0.405275
0.397087
0.383673
0.405618
0.429823
0.463492
0.505317
0.542675
0.579171
0.621083
0.666648
0.711168
0.766187
0.36187
0.303294
0.275599
0.262006
0.255322
0.251675
0.249498
0.248291
0.247933
0.2484
0.249677
0.251733
0.254522
0.257987
0.262077
0.266745
0.271961
0.277719
0.284033
0.290936
0.298473
0.30671
0.315739
0.32568
0.33662
0.34844
0.360743
0.37352
0.387812
0.404547
0.423375
0.443288
0.462526
0.477474
0.484039
0.481033
0.449917
0.437411
0.466429
0.511291
0.549774
0.584903
0.625249
0.666574
0.70133
0.691143
0.351635
0.307197
0.289106
0.279539
0.274373
0.271412
0.26957
0.268421
0.267858
0.267893
0.268568
0.269911
0.271933
0.274631
0.27799
0.282
0.286656
0.291969
0.297973
0.304714
0.312256
0.320671
0.330056
0.340527
0.352186
0.365031
0.37894
0.393977
0.410758
0.43008
0.45217
0.47669
0.502666
0.527969
0.549489
0.562906
0.567527
0.575993
0.597819
0.618714
0.567037
0.588087
0.627606
0.672138
0.704418
0.646125
0.353121
0.310373
0.294517
0.286502
0.282255
0.280043
0.278941
0.27849
0.278511
0.278966
0.279882
0.281297
0.283252
0.285773
0.288884
0.292601
0.296949
0.301959
0.30768
0.314174
0.321514
0.329785
0.339087
0.349542
0.361271
0.374363
0.388876
0.404983
0.423158
0.444033
0.468022
0.495151
0.524888
0.555804
0.585459
0.61032
0.630173
0.651501
0.681404
0.710601
0.723726
0.742454
0.768045
0.742176
0.716404
0.63532
0.363993
0.314269
0.29594
0.287246
0.283011
0.281215
0.280805
0.281201
0.282105
0.283391
0.285024
0.287019
0.289406
0.292225
0.295511
0.299305
0.303649
0.308593
0.3142
0.320547
0.327719
0.335816
0.344953
0.355264
0.3669
0.380011
0.39476
0.411388
0.430296
0.451986
0.476866
0.505065
0.536237
0.569299
0.60236
0.633082
0.660784
0.688884
0.722327
0.75877
0.790525
0.822205
0.859314
0.886778
0.905866
0.643353
0.377727
0.318027
0.295201
0.284587
0.279681
0.277906
0.277948
0.279064
0.280831
0.283025
0.28554
0.288341
0.291432
0.294839
0.298599
0.302758
0.30737
0.312496
0.318211
0.324604
0.331773
0.339834
0.348918
0.359178
0.370788
0.383939
0.39885
0.41579
0.435116
0.457236
0.482494
0.511022
0.542561
0.576286
0.610782
0.644417
0.67649
0.708556
0.743554
0.781496
0.818836
0.856449
0.898312
0.939383
0.975465
0.66478
0.391456
0.320952
0.29314
0.28017
0.274229
0.272161
0.272377
0.273975
0.276424
0.279411
0.282762
0.286388
0.290259
0.294377
0.298767
0.303471
0.308542
0.31405
0.320075
0.326715
0.334082
0.342303
0.351526
0.361922
0.373682
0.387024
0.402193
0.419471
0.439185
0.461679
0.487241
0.515984
0.547715
0.581816
0.61725
0.652822
0.687835
0.722822
0.759222
0.797446
0.836201
0.875647
0.917601
0.959898
0.998884
0.697408
0.404014
0.322776
0.290191
0.274876
0.267774
0.265214
0.265366
0.267201
0.270097
0.273675
0.277705
0.282053
0.28665
0.291472
0.296528
0.301846
0.307478
0.313491
0.319971
0.32702
0.334761
0.343332
0.352895
0.363634
0.375759
0.389503
0.405126
0.422916
0.44318
0.466228
0.492308
0.521527
0.553753
0.588537
0.625116
0.662589
0.700282
0.73816
0.776739
0.816265
0.856271
0.896707
0.93817
0.979659
1.01877
0.738051
0.414718
0.323397
0.286569
0.269125
0.260879
0.257726
0.257644
0.259505
0.262627
0.266581
0.271095
0.275999
0.281193
0.28663
0.292298
0.298215
0.304424
0.31099
0.317999
0.325558
0.333796
0.342863
0.352932
0.364201
0.376893
0.391256
0.40756
0.426096
0.447167
0.471063
0.498016
0.528141
0.561366
0.597372
0.6356
0.675349
0.71599
0.757195
0.798944
0.841188
0.883611
0.925993
0.968325
1.00989
1.04887
0.782806
0.42312
0.322782
0.282367
0.263095
0.253798
0.250022
0.2496
0.251333
0.254498
0.258632
0.263436
0.268716
0.274347
0.280263
0.286437
0.292875
0.299612
0.30671
0.314255
0.322358
0.331154
0.340803
0.351488
0.363421
0.376837
0.391998
0.409184
0.428696
0.450834
0.475886
0.504086
0.535569
0.570317
0.608119
0.648565
0.691104
0.735157
0.780257
0.826078
0.872305
0.918515
0.964282
1.0092
1.05249
1.09249
0.828036
0.429026
0.320969
0.277648
0.256869
0.246648
0.242265
0.241447
0.242948
0.246016
0.250171
0.255095
0.260577
0.266481
0.272723
0.279267
0.286109
0.29328
0.300839
0.308873
0.317497
0.326851
0.337104
0.348452
0.361118
0.375351
0.391426
0.409637
0.430293
0.453705
0.480166
0.509925
0.543144
0.57986
0.61995
0.66312
0.708933
0.756866
0.806393
0.857011
0.908198
0.959355
1.00983
1.05889
1.10557
1.14814
0.870927
0.432485
0.318074
0.272487
0.250505
0.239499
0.234552
0.23332
0.234523
0.237396
0.241446
0.246349
0.251883
0.257904
0.264321
0.27109
0.278204
0.28569
0.293606
0.302041
0.311115
0.320976
0.331802
0.343799
0.357203
0.372277
0.38931
0.408611
0.430503
0.455309
0.483341
0.514866
0.550081
0.589077
0.631807
0.678072
0.727524
0.779698
0.834048
0.88997
0.946787
1.00372
1.0599
1.11431
1.16575
1.21233
0.909571
0.43372
0.314264
0.266975
0.244063
0.232409
0.226957
0.225316
0.226187
0.228798
0.232652
0.237421
0.242882
0.248885
0.255338
0.262194
0.269443
0.277114
0.285265
0.293992
0.303417
0.313696
0.325019
0.337601
0.351693
0.367571
0.385539
0.405921
0.429057
0.455289
0.484949
0.518332
0.555673
0.597114
0.642678
0.692244
0.745542
0.802157
0.861547
0.923045
0.985861
1.04906
1.11157
1.17213
1.22929
1.28095
0.942836
0.433025
0.30972
0.261209
0.237606
0.225433
0.219542
0.217513
0.21804
0.220348
0.223942
0.228493
0.23378
0.239654
0.246023
0.252839
0.260097
0.267825
0.276088
0.284983
0.294643
0.305232
0.316946
0.330016
0.344703
0.361298
0.38012
0.401511
0.425828
0.453435
0.484688
0.519914
0.559388
0.603303
0.651743
0.704658
0.761843
0.822931
0.887389
0.954514
1.02343
1.09306
1.16217
1.22927
1.2927
1.35009
0.970168
0.430696
0.304603
0.255277
0.23119
0.218618
0.212356
0.209972
0.210158
0.212143
0.215435
0.219709
0.224747
0.230403
0.236588
0.243259
0.250411
0.258081
0.266335
0.27528
0.285055
0.295831
0.307817
0.321254
0.336416
0.353608
0.373163
0.39544
0.420818
0.449683
0.482418
0.519383
0.560895
0.607197
0.658431
0.714605
0.775575
0.841014
0.910403
0.983012
1.05789
1.13387
1.20954
1.28324
1.35308
1.4165
0.991421
0.426991
0.299043
0.249247
0.224859
0.211996
0.205432
0.202732
0.202594
0.204251
0.207218
0.211176
0.215912
0.221284
0.227209
0.233647
0.240601
0.24811
0.25625
0.265132
0.274904
0.285748
0.297881
0.311555
0.327055
0.3447
0.36484
0.38785
0.414128
0.444086
0.478135
0.51667
0.560048
0.608562
0.662405
0.721645
0.786183
0.855732
0.929783
1.00759
1.08814
1.17016
1.25213
1.3322
1.40832
1.47769
1.00672
0.422117
0.293131
0.243164
0.218635
0.205585
0.198786
0.195814
0.195376
0.196713
0.199349
0.20297
0.207369
0.212412
0.21802
0.22416
0.230839
0.238105
0.246039
0.25476
0.264424
0.275221
0.287378
0.301157
0.316854
0.334802
0.355363
0.378932
0.405925
0.436779
0.471935
0.511823
0.556842
0.60733
0.663533
0.725565
0.793376
0.866708
0.945062
1.02767
1.11348
1.20112
1.28895
1.375
1.45704
1.53206
1.01637
0.416239
0.286928
0.237053
0.212527
0.199385
0.192418
0.18922
0.188513
0.189548
0.191856
0.195134
0.199179
0.203865
0.209118
0.214913
0.221262
0.228219
0.235872
0.244349
0.253812
0.264459
0.276527
0.290285
0.306042
0.324139
0.344956
0.3689
0.396411
0.427948
0.463983
0.504981
0.551382
0.603569
0.661836
0.726345
0.797084
0.873824
0.956073
1.04304
1.13363
1.22639
1.31958
1.41108
1.49855
1.57878
1.02077
0.409484
0.280475
0.230921
0.20653
0.193383
0.186312
0.182937
0.181996
0.182753
0.184749
0.187687
0.191375
0.19569
0.200568
0.205986
0.211966
0.218566
0.225882
0.234048
0.243232
0.253641
0.265517
0.279139
0.294825
0.312927
0.333835
0.357975
0.385804
0.417808
0.454486
0.49634
0.543849
0.597443
0.657462
0.724112
0.79742
0.877178
0.962898
1.05377
1.14865
1.24602
1.34403
1.44045
1.53281
1.61774
1.02037
0.401959
0.273797
0.22477
0.20063
0.187559
0.180446
0.176942
0.175804
0.176311
0.178016
0.180629
0.183965
0.18791
0.192403
0.19743
0.203017
0.209228
0.216166
0.223969
0.232812
0.242908
0.254505
0.26789
0.283387
0.301359
0.322206
0.34637
0.374326
0.406585
0.443675
0.486134
0.534483
0.589195
0.650656
0.719119
0.794644
0.877046
0.96584
1.0602
1.15891
1.26041
1.36275
1.4636
1.56038
1.64958
1.01565
0.393753
0.266914
0.218594
0.194811
0.181891
0.174792
0.171205
0.169909
0.170198
0.171637
0.173945
0.176945
0.180528
0.184639
0.189271
0.194454
0.200258
0.20679
0.214194
0.22265
0.232374
0.243621
0.256682
0.271888
0.289609
0.310258
0.334289
0.362196
0.394513
0.431799
0.474628
0.523562
0.579121
0.64174
0.711714
0.789141
0.873857
0.96538
1.06286
1.16504
1.27028
1.37656
1.48148
1.58234
1.67555
1.00707
0.384948
0.259845
0.212389
0.189056
0.176354
0.169323
0.165696
0.16428
0.164385
0.165586
0.167614
0.170297
0.173534
0.177275
0.181518
0.186297
0.191688
0.197801
0.204783
0.212818
0.222127
0.232967
0.245633
0.260462
0.277832
0.298163
0.321922
0.349624
0.381824
0.419113
0.462101
0.511395
0.567563
0.631091
0.702321
0.781389
0.868155
0.96214
1.06247
1.16786
1.2766
1.38659
1.49539
1.60024
1.69748
0.995087
0.375624
0.252612
0.206157
0.183356
0.17093
0.164014
0.160389
0.158888
0.15884
0.159834
0.161608
0.163999
0.166911
0.1703
0.174168
0.178553
0.183534
0.189224
0.195774
0.203369
0.212232
0.222623
0.234842
0.249226
0.266161
0.286075
0.309448
0.336812
0.368747
0.405873
0.448841
0.498305
0.554885
0.61912
0.691406
0.771922
0.860556
0.956835
1.05987
1.16833
1.28047
1.39415
1.50688
1.61594
1.71765
0.980148
0.365856
0.245239
0.199903
0.177703
0.165605
0.158846
0.155258
0.153706
0.153537
0.154352
0.155901
0.158027
0.160639
0.163699
0.167211
0.171218
0.175801
0.181075
0.187191
0.194338
0.202738
0.212655
0.224387
0.238277
0.254713
0.274133
0.297029
0.323948
0.355496
0.392327
0.435133
0.484616
0.541455
0.60625
0.679455
0.761299
0.851704
0.950208
1.05591
1.16746
1.28308
1.40062
1.51763
1.63145
1.73854
0.962666
0.355721
0.237758
0.19364
0.172099
0.160371
0.153804
0.150285
0.148712
0.14845
0.149116
0.150468
0.152355
0.154695
0.157451
0.160632
0.164283
0.168485
0.173357
0.179049
0.185749
0.193683
0.20311
0.214333
0.227696
0.243589
0.262459
0.284809
0.311204
0.342275
0.37871
0.421245
0.470638
0.52763
0.592889
0.666936
0.750057
0.842218
0.942977
1.05143
1.16622
1.28555
1.40732
1.52921
1.64875
1.76267
0.943041
0.345298
0.230204
0.187384
0.16655
0.155226
0.14888
0.145457
0.143888
0.143561
0.144104
0.145285
0.146963
0.149057
0.151538
0.154415
0.157734
0.16158
0.166069
0.171352
0.177618
0.185089
0.194027
0.204732
0.217549
0.232874
0.251158
0.272916
0.298732
0.329261
0.365229
0.40742
0.45665
0.51373
0.579403
0.654266
0.738676
0.832648
0.935768
1.04715
1.16542
1.28884
1.4154
1.543
1.66954
1.79228
0.921656
0.334667
0.222619
0.181161
0.161069
0.150176
0.144072
0.140766
0.139224
0.138853
0.139297
0.140335
0.141829
0.143707
0.14594
0.148541
0.151558
0.155074
0.159204
0.164102
0.169951
0.176974
0.18543
0.195619
0.207888
0.222633
0.240313
0.261454
0.286657
0.316606
0.352064
0.393864
0.442889
0.500024
0.566097
0.641792
0.727543
0.823428
0.929073
1.04361
1.16569
1.29364
1.42565
1.55996
1.69507
1.82906
0.898884
0.323909
0.215047
0.174999
0.155674
0.145228
0.139382
0.13621
0.134711
0.134317
0.134684
0.135601
0.136938
0.138627
0.140641
0.142996
0.145739
0.148953
0.152755
0.157292
0.162748
0.169344
0.177335
0.187022
0.198749
0.212918
0.229991
0.250505
0.275081
0.30443
0.339354
0.38074
0.429538
0.486717
0.553198
0.629761
0.716929
0.814853
0.923207
1.04115
1.16739
1.30035
1.43847
1.58055
1.72592
1.87392
0.875083
0.313111
0.207538
0.168931
0.150385
0.140396
0.134818
0.13179
0.130349
0.129947
0.130256
0.131073
0.132277
0.133801
0.135625
0.137762
0.140262
0.143205
0.146707
0.150913
0.156005
0.162198
0.169749
0.178953
0.190156
0.203761
0.220236
0.240128
0.264076
0.292819
0.3272
0.368161
0.416725
0.473948
0.540851
0.618321
0.706981
0.807064
0.918302
1.0399
1.1706
1.30899
1.45385
1.60465
1.76193
1.92676
0.850602
0.302362
0.200144
0.16299
0.145226
0.135695
0.130389
0.127511
0.126136
0.125739
0.126005
0.126742
0.127833
0.129218
0.130877
0.132825
0.135111
0.137814
0.141047
0.144953
0.14971
0.155531
0.162668
0.171416
0.182119
0.19518
0.211073
0.230356
0.253685
0.281826
0.315662
0.356194
0.404517
0.461781
0.529114
0.607516
0.697721
0.800052
0.914307
1.03973
1.17515
1.31928
1.47132
1.63161
1.80217
1.98639
0.825777
0.29175
0.192918
0.157211
0.140222
0.131143
0.126106
0.123381
0.122078
0.121694
0.12193
0.122602
0.123601
0.124868
0.126386
0.128171
0.130272
0.132764
0.135759
0.139397
0.14385
0.14933
0.156084
0.164405
0.174634
0.187177
0.202511
0.221203
0.243926
0.271471
0.304764
0.34486
0.39293
0.450219
0.517968
0.597297
0.689058
0.793674
0.911012
1.04036
1.18061
1.33064
1.49009
1.66025
1.84494
2.05044
0.800926
0.281365
0.185909
0.15163
0.135398
0.126759
0.121983
0.119408
0.118178
0.117815
0.11803
0.118651
0.119573
0.120741
0.122141
0.123788
0.125729
0.12804
0.130827
0.134226
0.138408
0.143578
0.14998
0.157904
0.167689
0.179741
0.194541
0.212662
0.234793
0.26175
0.294497
0.334142
0.381934
0.439212
0.507331
0.587539
0.680811
0.787678
0.908079
1.04135
1.18641
1.3423
1.50908
1.68904
1.88797
2.1155
0.776348
0.271293
0.179168
0.146279
0.130777
0.12256
0.118034
0.115602
0.114445
0.114104
0.114306
0.114886
0.115745
0.116832
0.118133
0.119664
0.121471
0.123626
0.126232
0.129422
0.133362
0.138253
0.144334
0.151892
0.161263
0.172852
0.187141
0.204711
0.226263
0.252635
0.284825
0.323995
0.371464
0.428666
0.497072
0.578058
0.672732
0.781734
0.905084
1.04215
1.19187
1.35338
1.52709
1.71623
1.92856
2.17737
0.752319
0.261612
0.172738
0.141189
0.126383
0.118563
0.114272
0.111974
0.110885
0.110567
0.110761
0.111307
0.112114
0.113134
0.114353
0.115788
0.117481
0.119504
0.121956
0.124964
0.128691
0.133332
0.139121
0.146341
0.155327