/*--------------------------------*- C++ -*----------------------------------*\
  =========                 |
  \\      /  F ield         | OpenFOAM: The Open Source CFD Toolbox
   \\    /   O peration     | Website:  https://openfoam.org
    \\  /    A nd           | Version:  7
     \\/     M anipulation  |
\*---------------------------------------------------------------------------*/
FoamFile
{
    version     2.0;
    format      ascii;
    class       volScalarField;
    location    "0.4";
    object      k;
}
// * * * * * * * * * * * * * * * * * * * * * * * * * * * * * * * * * * * * * //

dimensions      [0 2 -2 0 0 0 0];

internalField   nonuniform List<scalar> 
9072
(
0.00272716
0.00488353
0.00739494
0.00959344
0.011397
0.0130521
0.0145232
0.0158795
0.0171616
0.0183997
0.0196153
0.0208215
0.0220254
0.0232287
0.0244294
0.0256226
0.0268016
0.0279584
0.0290842
0.0301698
0.0312054
0.0321815
0.0330881
0.0339155
0.0346537
0.035293
0.0358235
0.0362352
0.0365179
0.0366596
0.0366411
0.0364744
0.0361946
0.035746
0.0350989
0.0342312
0.0331258
0.0317795
0.0302235
0.0285395
0.0268011
0.0251782
0.0226494
0.0202736
0.017869
0.0146789
0.00441624
0.0100276
0.0152561
0.0197883
0.0237073
0.0269876
0.0298891
0.0325355
0.0350155
0.0373938
0.0397142
0.0420041
0.0442773
0.0465378
0.048782
0.0510011
0.0531827
0.0553124
0.0573743
0.0593519
0.0612284
0.0629875
0.0646133
0.0660906
0.0674053
0.0685448
0.0694981
0.0702567
0.0708147
0.0711692
0.0713163
0.0712258
0.0709211
0.0704174
0.069734
0.0689008
0.0679636
0.0669986
0.0661204
0.0654347
0.0647219
0.0631542
0.0578278
0.0493688
0.0380792
0.026137
0.0052717
0.0127812
0.0190173
0.0245573
0.0292991
0.0334188
0.0370907
0.0404438
0.04358
0.0465756
0.049484
0.052339
0.0551586
0.0579489
0.0607074
0.0634251
0.0660886
0.0686819
0.0711873
0.0735863
0.0758603
0.0779907
0.0799601
0.0817521
0.083352
0.0847473
0.0859286
0.0868904
0.087632
0.0881583
0.0884784
0.0885951
0.0885377
0.0883362
0.0880278
0.0876524
0.0872506
0.0868721
0.0865938
0.0865011
0.0863445
0.0850026
0.0805531
0.0708048
0.0547615
0.0336852
0.00575752
0.0147438
0.0216681
0.0276996
0.0329972
0.0376866
0.0419009
0.0457615
0.0493713
0.0528101
0.0561351
0.0593836
0.0625764
0.0657216
0.068818
0.0718573
0.0748267
0.07771
0.0804893
0.0831457
0.08566
0.0880136
0.0901886
0.0921689
0.0939406
0.0954926
0.096818
0.0979153
0.0987894
0.0994533
0.099928
0.100239
0.100433
0.100559
0.100673
0.100823
0.101044
0.101343
0.101707
0.102092
0.102178
0.100842
0.0968631
0.0882593
0.0720903
0.0412522
0.00620162
0.016411
0.0237449
0.030145
0.0358487
0.0409656
0.0456047
0.0498748
0.0538724
0.0576755
0.0613413
0.0649082
0.0683984
0.0718215
0.0751777
0.0784597
0.0816556
0.0847499
0.0877252
0.0905628
0.0932441
0.0957507
0.0980656
0.100173
0.102062
0.103722
0.10515
0.106348
0.107327
0.108109
0.108724
0.109215
0.109644
0.110077
0.110585
0.111225
0.112025
0.112957
0.113927
0.11476
0.115057
0.113815
0.110197
0.102935
0.0883799
0.0496666
0.0067866
0.0178373
0.0255443
0.0322255
0.0382304
0.0436769
0.0486592
0.0532715
0.0576006
0.0617184
0.0656794
0.0695208
0.0732652
0.0769231
0.0804954
0.0839761
0.0873541
0.0906151
0.0937424
0.0967182
0.0995248
0.102145
0.104562
0.106763
0.108737
0.110477
0.111984
0.113264
0.114333
0.115221
0.115968
0.116628
0.117276
0.117994
0.118862
0.119944
0.121262
0.122762
0.124291
0.125576
0.126155
0.125157
0.121914
0.116008
0.102674
0.0578194
0.00738437
0.0191683
0.0271947
0.0340904
0.0403211
0.0460245
0.0512865
0.0561877
0.0608033
0.0651973
0.0694191
0.0735036
0.0774724
0.0813358
0.0850955
0.0887462
0.092278
0.0956774
0.0989288
0.102016
0.104921
0.10763
0.110126
0.112399
0.114439
0.116244
0.117815
0.119165
0.120317
0.121303
0.122176
0.122997
0.123852
0.124833
0.126029
0.127508
0.129287
0.131296
0.133345
0.135099
0.136057
0.135473
0.132786
0.127878
0.115557
0.0652641
0.00794451
0.0204314
0.0287385
0.0358072
0.0422128
0.0481197
0.053611
0.0587565
0.0636201
0.0682568
0.0727104
0.0770119
0.0811812
0.0852278
0.0891535
0.0929536
0.0966188
0.100137
0.103493
0.106673
0.10966
0.11244
0.115
0.117331
0.119426
0.121284
0.122913
0.124327
0.125555
0.126637
0.12763
0.128607
0.129657
0.130882
0.132377
0.134212
0.136405
0.138875
0.141414
0.143657
0.14509
0.145066
0.143137
0.139049
0.127392
0.0721133
0.00844765
0.0216098
0.0301804
0.0374029
0.043953
0.0500257
0.0557071
0.0610593
0.0661368
0.0709864
0.0756454
0.0801409
0.0844899
0.088701
0.0927752
0.0967083
0.100492
0.104113
0.107561
0.110819
0.113875
0.116716
0.11933
0.12171
0.123852
0.125758
0.127439
0.128915
0.130217
0.131392
0.132504
0.13363
0.134864
0.136316
0.138085
0.140243
0.142807
0.145699
0.148705
0.151457
0.153446
0.154104
0.153062
0.149854
0.138539
0.0792353
0.00889276
0.0226885
0.0315149
0.0388863
0.0455651
0.0517784
0.0576196
0.0631474
0.0684091
0.0734444
0.0782848
0.0829529
0.0874629
0.0918216
0.0960294
0.100082
0.10397
0.107685
0.111212
0.11454
0.117656
0.12055
0.123211
0.125634
0.127819
0.12977
0.131501
0.133037
0.134413
0.135681
0.136908
0.138178
0.139588
0.141252
0.143271
0.145722
0.148624
0.151903
0.155358
0.158632
0.161243
0.162681
0.162617
0.16032
0.149175
0.0862028
0.00929345
0.0236659
0.03274
0.0402606
0.0470608
0.053398
0.0593759
0.0650532
0.0704731
0.0756697
0.0806694
0.0854905
0.0901444
0.0946356
0.0989636
0.103123
0.107107
0.110904
0.114503
0.117893
0.121063
0.124003
0.126706
0.12917
0.131395
0.13339
0.135171
0.136767
0.138217
0.139577
0.140919
0.142329
0.143907
0.145769
0.14802
0.150737
0.153946
0.157584
0.161469
0.165273
0.168553
0.170849
0.171837
0.170503
0.159567
0.0930819
0.0096757
0.0245506
0.0338597
0.041529
0.0484464
0.0548954
0.0609916
0.0667969
0.0723525
0.0776888
0.0828278
0.0877841
0.092566
0.0971759
0.101612
0.105869
0.109938
0.113809
0.117473
0.120919
0.124137
0.12712
0.129863
0.132365
0.13463
0.136669
0.138501
0.140159
0.141685
0.143138
0.144593
0.146139
0.147878
0.149927
0.152392
0.155354
0.158844
0.162816
0.167111
0.171442
0.175417
0.178626
0.180741
0.180484
0.170094
0.100388
0.0100324
0.0253541
0.0348822
0.0426964
0.0497259
0.0562765
0.0624758
0.0683908
0.0740627
0.0795196
0.0847801
0.0898555
0.094751
0.0994671
0.104
0.108344
0.11249
0.11643
0.120152
0.123649
0.126912
0.129936
0.132717
0.135256
0.137561
0.139645
0.141531
0.143252
0.144856
0.146404
0.147972
0.149652
0.151546
0.153773
0.156438
0.159625
0.163374
0.167655
0.172338
0.177183
0.181857
0.186011
0.189324
0.190353
0.181258
0.108491
0.0103772
0.0260903
0.0358171
0.0437681
0.0509025
0.0575443
0.0638333
0.0698421
0.0756138
0.0811749
0.0865414
0.0917215
0.0967177
0.101528
0.106149
0.110571
0.114787
0.118788
0.122565
0.126109
0.129414
0.132476
0.135294
0.137871
0.140216
0.142347
0.144289
0.146077
0.147762
0.149406
0.151088
0.1529
0.154946
0.157343
0.160198
0.163595
0.167584
0.172151
0.177198
0.182532
0.187886
0.192982
0.197547
0.200171
0.193639
0.117825
0.0107247
0.0267715
0.0366734
0.0447489
0.0519781
0.0587003
0.0650663
0.0711554
0.0770127
0.082664
0.0881229
0.0933951
0.0984807
0.103376
0.108074
0.112567
0.116847
0.120904
0.124729
0.128317
0.131662
0.134761
0.137615
0.140231
0.142619
0.144799
0.146799
0.148658
0.150427
0.152171
0.153969
0.155913
0.158107
0.16067
0.163706
0.167304
0.171517
0.176351
0.181735
0.187523
0.193512
0.199505
0.205323
0.209894
0.207436
0.128887
0.0110897
0.0274071
0.0374569
0.0456418
0.0529537
0.0597447
0.0661763
0.0723341
0.0782651
0.0839948
0.0895348
0.0948883
0.100053
0.105023
0.109791
0.114348
0.118685
0.122792
0.126663
0.130292
0.133674
0.136809
0.139701
0.142356
0.144788
0.14702
0.149082
0.151015
0.152872
0.154719
0.156635
0.158712
0.161054
0.163782
0.166996
0.170785
0.175213
0.180296
0.185991
0.192191
0.19875
0.205545
0.212513
0.219209
0.22204
0.143615
0.00457561
0.0107531
0.0165487
0.0203747
0.023222
0.0255818
0.0276785
0.029621
0.0313449
0.032765
0.0338683
0.0346446
0.035083
0.0351751
0.0348933
0.0342186
0.0332505
0.0320437
0.0306549
0.0291413
0.0275609
0.0259688
0.0244139
0.0229342
0.0215539
0.0202991
0.0192039
0.018212
0.0172763
0.0163488
0.0153781
0.0143072
0.0130733
0.0116056
0.00982356
0.00764206
0.00509146
0.00476313
0.00779162
0.0168599
0.0235077
0.0277407
0.0308459
0.0334707
0.0358803
0.0381536
0.0401916
0.0419344
0.0433457
0.0443951
0.0450582
0.0453134
0.0451259
0.0444797
0.0434551
0.042108
0.0404996
0.0386969
0.0367717
0.0347972
0.0328424
0.0309664
0.0292128
0.0276052
0.0261806
0.0249007
0.0237166
0.02257
0.021394
0.0201135
0.0186441
0.0168898
0.0147354
0.0120496
0.00871039
0.00640238
0.00944626
0.0219001
0.0290686
0.0336489
0.03697
0.0397744
0.0423741
0.0448465
0.0470942
0.0490498
0.0506605
0.0518806
0.0526763
0.0530169
0.0528628
0.0522021
0.0511054
0.0496303
0.047841
0.0458104
0.0436185
0.0413494
0.0390845
0.0368971
0.0348449
0.0329644
0.0312871
0.0297862
0.0284112
0.027096
0.0257611
0.0243158
0.0226575
0.0206706
0.0182167
0.01513
0.0111496
0.00731865
0.012246
0.0263224
0.0339327
0.038789
0.0422809
0.0452076
0.0479282
0.0505307
0.0529175
0.0550124
0.056752
0.05808
0.0589558
0.0593421
0.0591963
0.0585109
0.0573498
0.0557707
0.0538396
0.051632
0.0492328
0.0467322
0.0442197
0.0417779
0.0394748
0.0373585
0.0354621
0.0337672
0.0322229
0.0307576
0.029282
0.0276924
0.0258721
0.0236907
0.0209945
0.017595
0.0131202
0.00781482
0.0147335
0.0304845
0.0384828
0.0435566
0.0471937
0.0502211
0.0530351
0.0557332
0.0582159
0.0604025
0.0622237
0.0636165
0.0645362
0.0649415
0.0647881
0.064073
0.0628549
0.06119
0.0591443
0.0567939
0.0542258
0.0515336
0.0488116
0.0461484
0.0436201
0.0412835
0.0391774
0.0372909
0.035575
0.0339557
0.0323369
0.0306051
0.0286325
0.0262774
0.0233756
0.0197229
0.0148895
0.00781992
0.0170989
0.0345634
0.0429271
0.0481736
0.0519377
0.0550571
0.0579531
0.060727
0.0632768
0.0655201
0.0673859
0.0688089
0.0697425
0.0701442
0.0699689
0.069219
0.0679483
0.0662104
0.0640698
0.0616014
0.0588923
0.0560371
0.0531325
0.0502709
0.0475338
0.0449852
0.0426701
0.0405855
0.0386863
0.0368988
0.0351238
0.0332411
0.0311147
0.0285944
0.0255089
0.0216384
0.0164993
0.00799102
0.0194481
0.0386737
0.0473968
0.0527776
0.0566546
0.0598647
0.0628419
0.0656806
0.0682773
0.0705499
0.072429
0.073851
0.0747705
0.075146
0.0749337
0.0741419
0.0728197
0.0710174
0.0687962
0.0662287
0.0634
0.0604041
0.057338
0.0542958
0.0513623
0.0486068
0.0460809
0.0437884
0.0416898
0.0397148
0.0377641
0.0357145
0.0334247
0.0307388
0.0274792
0.0234098
0.0179827
0.00853565
0.0218545
0.0429112
0.0519894
0.0574673
0.0614493
0.0647572
0.0678273
0.070725
0.0733551
0.0756336
0.0774962
0.0788857
0.0797612
0.0800854
0.0798174
0.0789731
0.0775968
0.0757342
0.0734424
0.07079
0.0678587
0.0647401
0.0615297
0.0583215
0.0552019
0.052244
0.0495043
0.0469935
0.0446783
0.0424936
0.0403435
0.0381055
0.0356361
0.0327759
0.0293418
0.025079
0.0193699
0.00919589
0.0243785
0.0473726
0.0567946
0.0623314
0.0664228
0.0698481
0.0730301
0.0759932
0.0786471
0.0809079
0.0827214
0.084042
0.0848374
0.0850779
0.0847297
0.0838165
0.0823777
0.0804539
0.0780967
0.0753692
0.0723483
0.0691213
0.0657809
0.0624193
0.0591229
0.0559665
0.053011
0.0502721
0.0477229
0.0453054
0.0429297
0.0404773
0.0378063
0.0347558
0.0311373
0.0266753
0.0206813
0.00986927
0.0270746
0.0521706
0.0619184
0.0674777
0.0717052
0.0752874
0.0786121
0.0816533
0.0843193
0.0865326
0.0882543
0.0894578
0.090125
0.0902375
0.0897737
0.0887658
0.087248
0.0852551
0.0828314
0.0800335
0.0769316
0.0736072
0.0701484
0.0666443
0.0631792
0.0598287
0.0566563
0.0536814
0.0508825
0.0482094
0.0455804
0.0428845
0.0399845
0.0367207
0.0328996
0.0282235
0.0219348
0.0105265
0.0299933
0.0574557
0.0675142
0.0730751
0.0775015
0.081306
0.0848174
0.0879434
0.0905968
0.0927157
0.0942832
0.0953003
0.0957702
0.0956906
0.0950595
0.0939167
0.092291
0.0902107
0.0877115
0.0848413
0.0816616
0.0782468
0.0746782
0.0710402
0.067414
0.063874
0.0604854
0.0572688
0.0542071
0.0512574
0.0483478
0.0453772
0.0422166
0.0387102
0.0346601
0.0297467
0.0231469
0.0111635
0.0331842
0.063464
0.0738361
0.0794249
0.0841614
0.0882775
0.0920195
0.0952113
0.0977957
0.0997401
0.101057
0.101784
0.101955
0.10159
0.100716
0.0993762
0.0975956
0.095395
0.0927996
0.089846
0.0865851
0.0830812
0.0794075
0.0756419
0.0718608
0.0681363
0.0645337
0.0610731
0.0577391
0.054495
0.0512793
0.0480026
0.0445469
0.0407629
0.0364502
0.0312687
0.0243341
0.011784
0.0367059
0.0706137
0.0813238
0.0870862
0.0922889
0.0968028
0.10078
0.103955
0.106351
0.107985
0.108902
0.109187
0.108912
0.108128
0.1069
0.105271
0.103263
0.100889
0.0981599
0.0950992
0.0917438
0.088145
0.0843657
0.0804749
0.0765431
0.0726385
0.0688263
0.0651228
0.0615116
0.0579606
0.0544174
0.0508051
0.0470188
0.0429184
0.0383033
0.0328147
0.0255133
0.0123936
0.0406763
0.0796762
0.0907485
0.0970887
0.102895
0.107804
0.111896
0.114844
0.116828
0.117935
0.118233
0.117857
0.11693
0.115549
0.113808
0.111756
0.109414
0.106783
0.103862
0.100653
0.0971758
0.0934659
0.0895723
0.0855532
0.0814709
0.0773891
0.0733732
0.0694324
0.0655453
0.0616815
0.0577959
0.0538239
0.049674
0.0452173
0.0402552
0.0344139
0.0267046
0.0129995
0.0458335
0.0921255
0.10353
0.111247
0.117537
0.12256
0.126364
0.128671
0.129878
0.130142
0.129527
0.128204
0.12636
0.124147
0.121681
0.119022
0.116193
0.113187
0.109983
0.10656
0.102915
0.0990627
0.095034
0.0908741
0.0866351
0.0823749
0.0781624
0.0739947
0.0698401
0.0656664
0.0614338
0.0570873
0.052548
0.0476986
0.0423447
0.0361009
0.0279342
0.0136106
0.0606452
0.112917
0.122401
0.132199
0.138128
0.142474
0.145134
0.146154
0.146081
0.145107
0.143232
0.14063
0.137567
0.134237
0.130779
0.127276
0.123759
0.120216
0.116603
0.112872
0.108989
0.104943
0.100742
0.0964161
0.0920037
0.0875558
0.0831537
0.0787749
0.0743686
0.0698985
0.0653263
0.0606034
0.0556611
0.0503924
0.0446078
0.0379145
0.0292394
0.0142425
0.0115422
0.0281578
0.0384025
0.0467446
0.0541783
0.0610716
0.0676001
0.0738578
0.0798951
0.0857367
0.0913918
0.0968605
0.102137
0.107214
0.112082
0.11673
0.121149
0.125331
0.129269
0.132959
0.1364
0.139593
0.142544
0.145265
0.147773
0.150094
0.152261
0.154322
0.15633
0.158353
0.16047
0.162772
0.165357
0.168343
0.171832
0.175917
0.180668
0.186121
0.192263
0.199036
0.206358
0.214188
0.222583
0.23171
0.238736
0.189233
0.0122344
0.0290675
0.0394975
0.0479747
0.0555048
0.0624812
0.0690953
0.0754478
0.0815905
0.0875456
0.0933187
0.098906
0.104299
0.109486
0.114458
0.119201
0.123709
0.127971
0.131983
0.135743
0.139253
0.142518
0.145549
0.148359
0.150972
0.153417
0.155735
0.157975
0.160196
0.162464
0.164856
0.167459
0.170365
0.173672
0.17749
0.181911
0.187009
0.192826
0.199359
0.206557
0.214335
0.222594
0.231195
0.239706
0.245279
0.229146
0.0128864
0.0297147
0.0402544
0.0488194
0.0564212
0.0634668
0.0701537
0.0765856
0.0828136
0.0888581
0.0947218
0.100399
0.105878
0.111148
0.116196
0.121011
0.125585
0.129909
0.13398
0.137798
0.141367
0.144697
0.147801
0.150697
0.153412
0.155979
0.158445
0.160862
0.163291
0.165797
0.168456
0.171347
0.174559
0.178179
0.182311
0.187046
0.192454
0.198572
0.205384
0.212818
0.220748
0.228989
0.237215
0.24473
0.249804
0.246473
0.0133552
0.0298739
0.0404798
0.0491721
0.0568986
0.0640498
0.070826
0.0773373
0.0836393
0.0897536
0.0956838
0.101424
0.106963
0.112289
0.11739
0.122255
0.126876
0.131245
0.135361
0.139224
0.142843
0.146228
0.149398
0.152373
0.155181
0.157862
0.160465
0.163048
0.165673
0.168404
0.171311
0.174474
0.177977
0.1819
0.18634
0.191376
0.197066
0.203434
0.21044
0.21798
0.225898
0.233976
0.241846
0.248851
0.253861
0.254563
0.0134779
0.0291335
0.0399821
0.0490176
0.0569976
0.0643104
0.0711909
0.0777752
0.0841324
0.0902917
0.0962608
0.102036
0.107609
0.112968
0.118101
0.122997
0.127648
0.132048
0.136196
0.140095
0.143754
0.147188
0.150415
0.153458
0.156348
0.159129
0.161857
0.164592
0.167396
0.170329
0.173462
0.176878
0.180666
0.184905
0.189668
0.195015
0.200981
0.207563
0.2147
0.222253
0.230065
0.23794
0.245543
0.252322
0.257493
0.259965
0.0132127
0.0272625
0.0389871
0.0486728
0.0569591
0.0644042
0.0713508
0.0779726
0.084352
0.0905253
0.0965056
0.102293
0.107879
0.113252
0.118402
0.123316
0.127987
0.132408
0.136579
0.140504
0.144196
0.14767
0.150945
0.154042
0.156996
0.159856
0.162688
0.165557
0.16852
0.171624
0.174943
0.178584
0.182658
0.187248
0.192389
0.198095
0.204357
0.211135
0.218346
0.225833
0.233467
0.241109
0.24847
0.255083
0.260378
0.263701
0.0128828
0.024628
0.0384251
0.048782
0.0571497
0.0645534
0.0714702
0.0780758
0.0844413
0.0906021
0.0965737
0.102357
0.107946
0.113326
0.118486
0.123415
0.1281
0.132537
0.136724
0.140668
0.144386
0.147895
0.151211
0.154348
0.15734
0.160252
0.163171
0.166173
0.169291
0.172502
0.175913
0.179705
0.18404
0.189009
0.194582
0.200691
0.207283
0.214247
0.221486
0.228834
0.236251
0.243654
0.250757
0.257156
0.262442
0.266168
0.0161596
0.0260486
0.0390366
0.0491444
0.0573786
0.0647314
0.0716239
0.0782144
0.0845698
0.0907242
0.0966916
0.102473
0.10806
0.113439
0.118599
0.123528
0.128213
0.13265
0.136838
0.140783
0.1445
0.148009
0.151322
0.154454
0.15744
0.160345
0.163254
0.16631
0.169766
0.173098
0.176525
0.180396
0.185019
0.190631
0.196872
0.203236
0.20997
0.216993
0.224109
0.231201
0.238445
0.24567
0.252498
0.25861
0.263765
0.267643
0.0284259
0.043092
0.0568876
0.0654864
0.0722625
0.0791961
0.0859206
0.0923514
0.0985521
0.104568
0.110409
0.116079
0.121585
0.126927
0.1321
0.137098
0.141915
0.146551
0.151009
0.155295
0.159415
0.163374
0.167172
0.170806
0.174253
0.177415
0.179927
0.180613
0.175455
0.174808
0.177421
0.18104
0.185522
0.190979
0.197085
0.203973
0.213251
0.220833
0.226724
0.233074
0.240218
0.247281
0.253689
0.259432
0.26441
0.268306
0.0339642
0.0563649
0.0691272
0.0767328
0.0841077
0.0914303
0.0983459
0.104807
0.110894
0.116693
0.122265
0.12765
0.132878
0.137967
0.142929
0.147769
0.152494
0.15711
0.161631
0.166071
0.170449
0.174782
0.17909
0.1834
0.187728
0.192053
0.196201
0.19976
0.202592
0.206372
0.211211
0.216438
0.221498
0.225755
0.22772
0.223595
0.216616
0.22217
0.227941
0.235078
0.243121
0.249539
0.254834
0.259991
0.264715
0.2684
0.033025
0.0582463
0.0738968
0.0841292
0.0930825
0.101344
0.108872
0.115701
0.121943
0.127723
0.133152
0.138315
0.143275
0.148081
0.152764
0.157351
0.161861
0.166317
0.170741
0.17516
0.179604
0.184105
0.188696
0.193416
0.198306
0.203377
0.208562
0.21369
0.218767
0.224252
0.230429
0.237078
0.243748
0.24974
0.253746
0.254248
0.250759
0.237477
0.230461
0.236039
0.244329
0.250968
0.256094
0.261235
0.265752
0.268766
0.0308645
0.0583489
0.0757304
0.0881645
0.0985945
0.107816
0.116043
0.123397
0.130008
0.136013
0.14154
0.146698
0.151574
0.15624
0.16075
0.165149
0.169476
0.173765
0.178051
0.182371
0.186765
0.191272
0.195933
0.200791
0.205887
0.211248
0.216856
0.222647
0.228636
0.235034
0.242064
0.249713
0.257743
0.265697
0.272756
0.277845
0.27968
0.278071
0.277255
0.279634
0.279901
0.256502
0.257146
0.26183
0.266681
0.269347
0.0295902
0.0586486
0.076527
0.0901912
0.101631
0.111605
0.120435
0.1283
0.135341
0.141689
0.147468
0.152789
0.157749
0.162431
0.166904
0.171228
0.175453
0.179627
0.183796
0.188006
0.192303
0.196733
0.201343
0.20618
0.211289
0.216708
0.222453
0.228525
0.23496
0.241893
0.249481
0.257775
0.266663
0.275839
0.284725
0.292489
0.298087
0.301518
0.304713
0.309361
0.31247
0.309661
0.308522
0.307425
0.289158
0.27311
0.0293144
0.0588224
0.0769189
0.0911972
0.103226
0.113696
0.122965
0.131238
0.13866
0.145353
0.151429
0.156992
0.162134
0.16694
0.171485
0.175835
0.18005
0.184185
0.188295
0.192432
0.196649
0.201
0.205535
0.210309
0.215373
0.220776
0.226561
0.232761
0.239433
0.246674
0.254597
0.263254
0.272581
0.282349
0.29211
0.301211
0.30894
0.315123
0.320724
0.326922
0.332834
0.336409
0.33915
0.341797
0.340205
0.336605
0.0295846
0.0589929
0.077192
0.0917631
0.104085
0.114826
0.124358
0.132902
0.140603
0.147576
0.153921
0.159729
0.165085
0.170067
0.17475
0.179199
0.18348
0.187651
0.191771
0.195898
0.200091
0.204408
0.208907
0.213647
0.218687
0.224087
0.229901
0.236186
0.243004
0.250436
0.258561
0.267418
0.276955
0.286987
0.297162
0.306979
0.31592
0.323776
0.330961
0.338187
0.345322
0.351389
0.356617
0.361759
0.365512
0.367478
0.0302502
0.0592997
0.0775447
0.092222
0.104631
0.115459
0.125094
0.133768
0.14163
0.148789
0.155334
0.161347
0.1669
0.172066
0.176911
0.181501
0.185898
0.190163
0.194357
0.198542
0.202778
0.207128
0.211656
0.216425
0.221501
0.22695
0.232835
0.239222
0.246176
0.253765
0.26205
0.271052
0.280726
0.290918
0.301349
0.311636
0.321382
0.330365
0.338715
0.346778
0.354591
0.361762
0.368296
0.374555
0.380011
0.384032
0.0312351
0.0598278
0.0780822
0.0927296
0.105073
0.11584
0.125442
0.134121
0.14203
0.149276
0.15594
0.162094
0.167803
0.173129
0.178132
0.182874
0.187413
0.19181
0.196126
0.200422
0.204763
0.209214
0.213842
0.218714
0.2239
0.229469
0.235491
0.242034
0.249162
0.256937
0.265405
0.274578
0.284413
0.294782
0.305464
0.31616
0.326555
0.336427
0.345746
0.354631
0.363113
0.371038
0.378369
0.385223
0.391371
0.396368
0.0324314
0.0605728
0.0788054
0.0933119
0.105471
0.116064
0.125525
0.134107
0.141967
0.149209
0.155912
0.162139
0.167949
0.173396
0.178534
0.183418
0.188103
0.192649
0.197114
0.201561
0.206054
0.210661
0.215451
0.220494
0.225861
0.231624
0.237855
0.244622
0.251988
0.260008
0.26872
0.27813
0.288199
0.298819
0.309813
0.320943
0.331948
0.342613
0.352828
0.362574
0.371828
0.380497
0.388526
0.39592
0.402542
0.408064
0.0337174
0.0614679
0.0796429
0.093919
0.105806
0.116143
0.125384
0.133791
0.141525
0.14869
0.155361
0.161599
0.167453
0.172974
0.178211
0.183212
0.188032
0.192724
0.197348
0.201965
0.206641
0.211443
0.216441
0.221707
0.227313
0.233334
0.239838
0.246895
0.254564
0.262895
0.271921
0.281645
0.292031
0.30299
0.314374
0.325989
0.337614
0.349046
0.360131
0.370772
0.380888
0.390381
0.399165
0.407175
0.414288
0.42023
0.0349881
0.0624246
0.0804976
0.0944756
0.106031
0.116056
0.125024
0.133203
0.140755
0.147786
0.154368
0.160559
0.166406
0.171954
0.177248
0.182335
0.187264
0.192087
0.196864
0.201654
0.206523
0.211538
0.216771
0.222294
0.228179
0.2345
0.241325
0.248721
0.256745
0.265443
0.274842
0.284946
0.295722
0.307092
0.318935
0.331085
0.343352
0.355541
0.367481
0.37903
0.390058
0.400438
0.410049
0.418774
0.426471
0.432883
0.0361688
0.0633598
0.0812801
0.0949139
0.106103
0.115785
0.124448
0.132364
0.139696
0.14655
0.152998
0.159096
0.16489
0.17042
0.175731
0.180865
0.185871
0.190801
0.195711
0.200662
0.205719
0.210949
0.216424
0.222217
0.228399
0.235041
0.242212
0.249975
0.258384
0.267482
0.277293
0.287819
0.299031
0.310863
0.323208
0.335924
0.348841
0.361776
0.374549
0.386989
0.398934
0.410223
0.420699
0.430203
0.438566
0.445529
0.0372134
0.0642081
0.081925
0.0951875
0.105995
0.115323
0.123665
0.131298
0.138386
0.145034
0.151315
0.157283
0.162983
0.168456
0.173743
0.178887
0.183936
0.18894
0.193956
0.199045
0.204271
0.209703
0.215411
0.221467
0.227942
0.234907
0.242427
0.250562
0.259363
0.26887
0.279105
0.290068
0.301735
0.314046
0.326909
0.340196
0.353752
0.367404
0.380967
0.394256
0.407081
0.419255
0.430587
0.440884
0.449952
0.457518
0.0380986
0.064924
0.082393
0.0952736
0.105701
0.114674
0.122693
0.130036
0.136866
0.143289
0.149378
0.155188
0.160762
0.166143
0.171371
0.176489
0.181544
0.186588
0.191678
0.196873
0.202241
0.207848
0.213766
0.220064
0.226814
0.234083
0.241935
0.250425
0.259603
0.269505
0.280152
0.291543
0.303656
0.316438
0.329805
0.343641
0.357803
0.372123
0.386415
0.400482
0.414119
0.427113
0.439249
0.450303
0.460062
0.468237
0.038816
0.0654794
0.0826666
0.0951675
0.105225
0.113854
0.121557
0.12861
0.135178
0.141366
0.147247
0.152877
0.158301
0.163561
0.168698
0.173756
0.178783
0.183832
0.188959
0.194227
0.199702
0.205451
0.211545
0.218053
0.225045
0.232586
0.240735
0.249549
0.259071
0.269336
0.280362
0.29215
0.304678
0.317899
0.331734
0.346076
0.360789
0.37571
0.390651
0.405409
0.419763
0.433484
0.446334
0.45807
0.46846
0.477201
0.0393668
0.0658604
0.0827437
0.0948765
0.104583
0.112885
0.120284
0.127055
0.133362
0.139311
0.144976
0.150412
0.155666
0.160782
0.165801
0.17077
0.175737
0.180756
0.185886
0.19119
0.196734
0.202587
0.208817
0.215495
0.222686
0.230455
0.238859
0.24795
0.257769
0.26835
0.279709
0.291847
0.304744
0.318353
0.332603
0.347392
0.362588
0.378029
0.393528
0.408873
0.423835
0.438169
0.45162
0.463931
0.474855
0.484079
0.0397584
0.066063
0.0826311
0.0944137
0.103791
0.111787
0.118899
0.1254
0.131453
0.137165
0.142609
0.147843
0.152915
0.157869
0.162749
0.167603
0.172481
0.17744
0.182539
0.187843
0.193417
0.199332
0.205656
0.212458
0.219802
0.227749
0.236355
0.24567
0.255733
0.266573
0.278209
0.290639
0.303844
0.317782
0.332383
0.347549
0.363149
0.379023
0.394982
0.410807
0.426259
0.441082
0.455008
0.467766
0.479104
0.488698
0.0400011
0.0660898
0.0823399
0.0937941
0.102868
0.11058
0.117424
0.123669
0.12948
0.13496
0.140186
0.145214
0.150095
0.154875
0.159599
0.164318
0.169083
0.173954
0.17899
0.184259
0.189826
0.195763
0.202137
0.209015
0.216461
0.224534
0.233288
0.242768
0.253015
0.264054
0.275904
0.288563
0.302012
0.316212
0.331094
0.346561
0.362485
0.378704
0.395023
0.41122
0.427045
0.442231
0.456501
0.469574
0.481189
0.491022
0.0401071
0.065948
0.0818832
0.0930318
0.101827
0.109279
0.115876
0.121883
0.127463
0.132722
0.137733
0.142557
0.147244
0.151841
0.156398
0.160965
0.165598
0.170356
0.175302
0.180504
0.18603
0.191949
0.19833
0.205238
0.212737
0.220882
0.229727
0.239315
0.249684
0.260861
0.27286
0.285683
0.299311
0.313705
0.328797
0.344492
0.360661
0.377138
0.393725
0.410192
0.426279
0.441709
0.456196
0.469451
0.481211
0.491146
0.0400886
0.0656473
0.0812736
0.0921394
0.100681
0.107896
0.114266
0.120054
0.12542
0.130467
0.135273
0.139896
0.144388
0.1488
0.153182
0.157587
0.162071
0.166697
0.171529
0.176636
0.182087
0.187952
0.1943
0.201195
0.208698
0.216866
0.225747
0.235386
0.245819
0.257072
0.26916
0.282083
0.295826
0.310349
0.325586
0.341441
0.357781
0.374441
0.391214
0.407861
0.424113
0.439684
0.454276
0.467594
0.479373
0.489285
0.0399581
0.0651985
0.0805235
0.0911276
0.0994381
0.10644
0.112604
0.118191
0.123358
0.128208
0.132817
0.137246
0.141549
0.145775
0.149978
0.154212
0.158537
0.163015
0.167713
0.172702
0.178051
0.18383
0.190109
0.19695
0.204414
0.212556
0.221424
0.231062
0.241503
0.252776
0.264895
0.277863
0.291662
0.306257
0.32158
0.337535
0.353988
0.370767
0.387659
0.404416
0.420758
0.436386
0.450994
0.464281
0.475979
0.485765
0.0397272
0.0646134
0.0796442
0.0900062
0.0981072
0.104916
0.110895
0.116299
0.121283
0.12595
0.130375
0.13462
0.138739
0.142783
0.146807
0.150867
0.155024
0.159343
0.163892
0.168743
0.173966
0.179632
0.185809
0.192561
0.199948
0.208022
0.216832
0.226421
0.236824
0.248067
0.260167
0.273129
0.286936
0.301554
0.316917
0.332927
0.349448
0.366302
0.383269
0.400089
0.416471
0.432104
0.446671
0.459865
0.471418
0.481018
0.0394072
0.0639037
0.0786471
0.088784
0.0966945
0.103329
0.109142
0.114381
0.119199
0.123698
0.127952
0.132023
0.135966
0.139833
0.143681
0.147566
0.151552
0.155705
0.160095
0.164793
0.169871
0.175401
0.181451
0.188085
0.19536
0.203331
0.212046
0.221546
0.231868
0.24304
0.255081
0.267996
0.281773
0.296378
0.311748
0.327784
0.344347
0.361254
0.378275
0.395139
0.411543
0.427161
0.441669
0.454753
0.466147
0.475552
0.0390084
0.0630814
0.0775431
0.0874698
0.0952068
0.101685
0.107348
0.11244
0.117108
0.121453
0.12555
0.129459
0.133236
0.136934
0.140611
0.144325
0.148139
0.152122
0.156345
0.16088
0.1658
0.171177
0.177079
0.18357
0.190708
0.198547
0.207135
0.216515
0.226724
0.237793
0.249743
0.262582
0.276302
0.290873
0.306232
0.322282
0.338881
0.35584
0.37292
0.389839
0.40628
0.421903
0.436376
0.449381
0.460659
0.469929
0.0385409
0.0621587
0.0763435
0.0860727
0.0936508
0.0999882
0.105518
0.110477
0.11501
0.119217
0.123169
0.126929
0.130551
0.13409
0.137604
0.141151
0.144797
0.14861
0.152663
0.157029
0.161782
0.166993
0.172732
0.179063
0.186044
0.193729
0.202167
0.211403
0.221476
0.232418
0.244256
0.257001
0.270651
0.285178
0.300524
0.316593
0.333241
0.350274
0.367445
0.384459
0.400984
0.41667
0.431174
0.444184
0.455447
0.464714
0.0380139
0.0611481
0.07506
0.0846024
0.0920343
0.0982444
0.103654
0.108495
0.112908
0.11699
0.120812
0.124435
0.127915
0.131305
0.134664
0.138052
0.141535
0.145182
0.149065
0.15326
0.157841
0.16288
0.168447
0.174605
0.181416
0.188932
0.197205
0.206281
0.216202
0.227005
0.238718
0.251362
0.264939
0.279426
0.294771
0.31088
0.327609
0.344759
0.362074
0.379247
0.395933
0.41177
0.426413
0.439555
0.450965
0.460432
0.0374367
0.0600624
0.0737048
0.0830695
0.0903659
0.0964604
0.101763
0.106498
0.110804
0.114774
0.118479
0.121978
0.125327
0.128581
0.131796
0.135035
0.138362
0.141847
0.145565
0.149591
0.153999
0.158863
0.164253
0.170234
0.176866
0.184206
0.192305
0.201213
0.210975
0.221632
0.23322
0.245765
0.259275
0.273737
0.289105
0.305288
0.322142
0.339467
0.356997
0.374413
0.391358
0.407463
0.422379
0.435818
0.447582
0.457519
0.0368181
0.0589146
0.0722906
0.0814853
0.0886553
0.0946441
0.0998502
0.104491
0.108702
0.112572
0.116172
0.11956
0.122791
0.125919
0.129003
0.132102
0.135282
0.138616
0.142175
0.146036
0.150275
0.154965
0.160178
0.16598
0.172432
0.179593
0.187516
0.196254
0.205856
0.21637
0.227837
0.240292
0.253751
0.268212
0.283633
0.299932
0.316968
0.334535
0.352361
0.370117
0.387433
0.403932
0.419274
0.433196
0.445553
0.456273
0.036167
0.0577182
0.0708307
0.0798618
0.086913
0.0928045
0.0979232
0.10248
0.106605
0.110387
0.113893
0.117182
0.120308
0.123323
0.126286
0.129257
0.132303
0.135493
0.138902
0.142606
0.146682
0.151204
0.156244
0.161869
0.168144
0.175128
0.182878
0.191449
0.200897
0.211275
0.222632
0.235011
0.248441
0.262926
0.278439
0.294901
0.312175
0.330056
0.348265
0.366459
0.384259
0.401284
0.417205
0.4318
0.444996
0.456833
0.0354921
0.0564864
0.0693387
0.0782117
0.0851503
0.0909515
0.0959903
0.100471
0.10452
0.108224
0.111647
0.114848
0.117879
0.120794
0.123649
0.126504
0.129426
0.132484
0.135753
0.13931
0.143231
0.147592
0.152466
0.157923
0.164026
0.17084
0.178423
0.186836
0.196139
0.206391
0.217652
0.229974
0.243396
0.257935
0.273575
0.290246
0.307817
0.326081
0.344753
0.36348
0.38187
0.399542
0.416183
0.431625
0.445889
0.459161
0.0348019
0.055233
0.0678285
0.0765481
0.0833792
0.0890957
0.0940609
0.098473
0.102454
0.106087
0.109438
0.112561
0.115509
0.118334
0.121093
0.123845
0.126654
0.129593
0.132734
0.136154
0.13993
0.144141
0.148858