/*--------------------------------*- C++ -*----------------------------------*\
  =========                 |
  \\      /  F ield         | OpenFOAM: The Open Source CFD Toolbox
   \\    /   O peration     | Website:  https://openfoam.org
    \\  /    A nd           | Version:  7
     \\/     M anipulation  |
\*---------------------------------------------------------------------------*/
FoamFile
{
    version     2.0;
    format      ascii;
    class       volScalarField;
    location    "0.4";
    object      nut;
}
// * * * * * * * * * * * * * * * * * * * * * * * * * * * * * * * * * * * * * //

dimensions      [0 2 -1 0 0 0 0];

internalField   nonuniform List<scalar> 
9072
(
2.38326e-05
2.34618e-05
2.88563e-05
3.28793e-05
3.58486e-05
3.83711e-05
4.04873e-05
4.23446e-05
4.40262e-05
4.55885e-05
4.70686e-05
4.84896e-05
4.98644e-05
5.11989e-05
5.24943e-05
5.37486e-05
5.49582e-05
5.61181e-05
5.72232e-05
5.82676e-05
5.9246e-05
6.01525e-05
6.09817e-05
6.17279e-05
6.23854e-05
6.29484e-05
6.3411e-05
6.37667e-05
6.40085e-05
6.41273e-05
6.41066e-05
6.39608e-05
6.37145e-05
6.33189e-05
6.27446e-05
6.19666e-05
6.09604e-05
5.97112e-05
5.82319e-05
5.6584e-05
5.4825e-05
5.30819e-05
5.03781e-05
4.76651e-05
4.47332e-05
4.0508e-05
4.7275e-05
0.000153281
0.000230295
0.000283697
0.000325879
0.00035849
0.000385872
0.00040949
0.000430401
0.000449325
0.000466726
0.000482894
0.000497993
0.000512107
0.000525274
0.000537501
0.000548781
0.000559097
0.000568432
0.000576766
0.000584078
0.000590352
0.000595569
0.000599716
0.000602783
0.000604764
0.000605662
0.00060549
0.00060427
0.000602026
0.000598693
0.000592549
0.000582714
0.000569883
0.000554261
0.000535856
0.00051476
0.000491539
0.000467564
0.000444854
0.000424365
0.000402982
0.000379314
0.000359525
0.000272531
0.000114403
5.16761e-05
0.000262645
0.000407252
0.000518705
0.000610493
0.000688989
0.000757927
0.000819504
0.000875341
0.000926591
0.000974022
0.00101811
0.00105914
0.00109726
0.00113252
0.00116495
0.00119455
0.00122132
0.00124525
0.00126634
0.00128459
0.00129999
0.00131257
0.00132231
0.00132923
0.00133336
0.00133472
0.00133337
0.00132935
0.00132269
0.00131318
0.00129901
0.00127834
0.00125101
0.00121649
0.00117374
0.00112145
0.00105888
0.000987173
0.000910528
0.000834897
0.000764919
0.000712398
0.000661061
0.000468938
0.000129857
5.40099e-05
0.000334161
0.000533904
0.000694269
0.000833339
0.000957059
0.00106881
0.0011709
0.00126505
0.00135253
0.00143416
0.00151045
0.0015817
0.00164802
0.00170945
0.00176601
0.00181766
0.0018644
0.00190622
0.00194313
0.00197515
0.00200229
0.0020246
0.00204211
0.00205487
0.00206295
0.00206641
0.00206536
0.00205987
0.00204996
0.00203531
0.00201423
0.00198464
0.00194542
0.00189497
0.00183087
0.00175011
0.00165007
0.00153059
0.00139656
0.00125873
0.00113103
0.00103663
0.000940512
0.000675767
0.000143669
5.59782e-05
0.000379646
0.000622154
0.000825814
0.00100784
0.00117371
0.00132636
0.00146788
0.00159987
0.00172349
0.00183955
0.00194852
0.00205065
0.00214601
0.00223462
0.00231643
0.00239139
0.00245947
0.00252063
0.00257489
0.00262226
0.00266279
0.00269654
0.00272356
0.00274396
0.00275784
0.00276531
0.00276651
0.00276154
0.00275039
0.00273265
0.00270669
0.00267029
0.00262159
0.00255793
0.00247562
0.00237012
0.0022373
0.00207584
0.00189065
0.00169541
0.00151077
0.00136402
0.00120602
0.00085703
0.000157589
5.85178e-05
0.000406351
0.000685642
0.000927157
0.00114782
0.00135246
0.00154335
0.00172211
0.00189007
0.00204825
0.00219735
0.0023378
0.00246981
0.00259344
0.00270865
0.00281536
0.00291349
0.00300298
0.00308378
0.00315588
0.00321929
0.00327407
0.00332029
0.00335804
0.00338744
0.00340863
0.00342178
0.00342703
0.00342451
0.00341417
0.0033955
0.00336683
0.00332577
0.00326985
0.00319552
0.00309796
0.00297148
0.00281086
0.00261405
0.00238574
0.00214066
0.00190194
0.0016927
0.0014624
0.00100703
0.000170032
6.10252e-05
0.000425766
0.000734592
0.00100884
0.00126412
0.00150421
0.00173044
0.00194384
0.00214536
0.00233583
0.00251586
0.00268584
0.00284595
0.00299624
0.00313665
0.0032671
0.00338747
0.00349768
0.00359766
0.00368739
0.00376688
0.00383617
0.00389534
0.00394451
0.00398382
0.00401344
0.00403357
0.00404437
0.00404596
0.00403823
0.00402058
0.00399124
0.00394753
0.00388653
0.00380392
0.00369395
0.00355006
0.00336638
0.00314038
0.0028764
0.00258867
0.00229924
0.00202276
0.00170526
0.00113961
0.000180678
6.32996e-05
0.00044281
0.000775727
0.00107846
0.00136479
0.00163714
0.00189579
0.00214107
0.00237352
0.00259376
0.00280231
0.00299953
0.00318559
0.00336057
0.0035244
0.00367699
0.00381823
0.00394802
0.00406629
0.00417298
0.00426811
0.00435173
0.00442391
0.00448479
0.00453452
0.00457331
0.00460135
0.00461885
0.00462587
0.00462227
0.00460729
0.0045791
0.00453452
0.00447042
0.00438173
0.00426202
0.00410407
0.00390159
0.00365175
0.00335826
0.00303374
0.00269652
0.00235209
0.00193794
0.00125836
0.000189909
6.52857e-05
0.000459001
0.000812956
0.00114112
0.00145552
0.00175721
0.00204542
0.00231981
0.0025805
0.00282793
0.0030625
0.00328458
0.00349435
0.0036919
0.00387719
0.00405016
0.0042107
0.00435869
0.00449407
0.0046168
0.00472686
0.00482432
0.00490925
0.00498181
0.00504216
0.00509052
0.00512712
0.00515212
0.0051656
0.0051673
0.00515635
0.00513078
0.00508696
0.00502152
0.00492882
0.00480181
0.00463284
0.00441531
0.00414605
0.0038279
0.00347097
0.00308823
0.00267569
0.00216358
0.00136687
0.000198996
6.70005e-05
0.000474594
0.000848269
0.00119992
0.00154004
0.00186847
0.00218358
0.0024844
0.00277072
0.00304279
0.00330095
0.00354554
0.00377679
0.00399481
0.00419962
0.00439115
0.00456933
0.00473407
0.00488528
0.00502295
0.00514706
0.00525767
0.00535489
0.00543886
0.00550978
0.00556788
0.00561338
0.00564645
0.00566712
0.00567502
0.00566916
0.00564738
0.00560576
0.00554057
0.0054457
0.00531364
0.00513636
0.00490698
0.00462192
0.00428281
0.00389664
0.00347012
0.00298998
0.00238088
0.00146806
0.000207568
6.85099e-05
0.000489487
0.000882498
0.00125651
0.00162053
0.00197348
0.00231304
0.00263781
0.0029473
0.00324161
0.00352105
0.00378595
0.00403657
0.00427306
0.00449548
0.00470382
0.00489802
0.00507801
0.00524375
0.0053952
0.00553239
0.00565537
0.00576426
0.00585923
0.00594049
0.00600828
0.00606283
0.00610431
0.00613265
0.00614743
0.00614749
0.00613046
0.00609221
0.00602866
0.00593329
0.00579818
0.00561499
0.00537652
0.0050786
0.00472133
0.00430822
0.00383941
0.00329299
0.0025894
0.00156421
0.000215679
6.99247e-05
0.000503508
0.000915798
0.00131147
0.001698
0.00207358
0.00243545
0.00278193
0.00311236
0.00342674
0.00372533
0.0040085
0.00427652
0.00452962
0.00476789
0.00499137
0.00520004
0.00539386
0.00557282
0.00573691
0.00588616
0.00602066
0.00614054
0.00624599
0.00633724
0.00641454
0.00647814
0.00652815
0.00656449
0.00658661
0.00659319
0.00658169
0.00654778
0.00648707
0.00639268
0.00625633
0.00606936
0.00582418
0.00551583
0.00514263
0.00470437
0.00419477
0.00358412
0.00278957
0.00165719
0.000223973
7.12324e-05
0.000516505
0.000947918
0.0013647
0.00177259
0.00216922
0.00255158
0.00291784
0.00326724
0.00359974
0.00391559
0.00421519
0.00449885
0.00476685
0.00501934
0.00525642
0.00547811
0.00568442
0.00587536
0.00605096
0.00621128
0.00635643
0.00648658
0.00660193
0.00670274
0.00678927
0.00686177
0.00692034
0.00696483
0.00699458
0.00700813
0.00700276
0.006974
0.00691717
0.00682507
0.00668911
0.00650027
0.00625047
0.00593381
0.00554662
0.00508487
0.00453625
0.00386411
0.00298274
0.00174949
0.000232832
7.24726e-05
0.00052823
0.000978334
0.00141562
0.00184388
0.00226023
0.00266156
0.00304598
0.00341269
0.00376163
0.0040931
0.00440749
0.00470521
0.00498657
0.00525182
0.00550108
0.00573446
0.005952
0.00615376
0.00633981
0.00651024
0.0066652
0.00680488
0.00692952
0.00703941
0.00713482
0.007216
0.00728304
0.00733572
0.00737327
0.00739409
0.00739529
0.00737232
0.00732029
0.00723168
0.00709757
0.0069086
0.00665613
0.00633314
0.00593384
0.00545051
0.00486526
0.00413528
0.00317201
0.00184513
0.000242642
7.36992e-05
0.000538401
0.00100637
0.00146338
0.00191108
0.00234607
0.00276515
0.00316641
0.00354905
0.00391303
0.00425867
0.00458645
0.00489682
0.00519019
0.00546686
0.00572704
0.00597089
0.00619851
0.00641002
0.00660551
0.00678514
0.00694908
0.00709758
0.00723091
0.00734937
0.00745327
0.00754286
0.0076182
0.00767901
0.00772443
0.0077527
0.0077608
0.00774411
0.0076977
0.00761366
0.00748277
0.00729531
0.00704201
0.00671469
0.00630542
0.00580297
0.00518459
0.00440219
0.00336471
0.00195209
0.000253789
7.49595e-05
0.000546761
0.00103128
0.00150702
0.00197325
0.00242599
0.00286187
0.00327894
0.0036764
0.00405425
0.00441286
0.00475279
0.00507459
0.00537875
0.00566566
0.00593561
0.00618883
0.00642548
0.00664574
0.00684975
0.00703772
0.00720988
0.00736651
0.00750792
0.00763444
0.00774641
0.00784409
0.00792752
0.00799636
0.00804963
0.00808544
0.00810062
0.00809061
0.00805059
0.00797212
0.00784572
0.00766131
0.00740904
0.00707952
0.00666281
0.00614459
0.00549827
0.00467229
0.00357626
0.00209395
0.000267953
3.1455e-05
7.34382e-05
0.000113175
0.000139384
0.000158905
0.000175114
0.000189551
0.000202957
0.00021489
0.00022476
0.000232472
0.000237954
0.000241123
0.000241913
0.000240112
0.0002356
0.000229041
0.000220802
0.000211264
0.000200822
0.000189875
0.000178811
0.000167975
0.000157642
0.000147991
0.000139206
0.000131551
0.000124639
0.000118146
0.000111739
0.000105062
9.77203e-05
8.92786e-05
7.92484e-05
6.70745e-05
5.21755e-05
3.47642e-05
5.50868e-05
0.000295336
0.000237039
0.000322912
0.000386838
0.000441
0.000490033
0.000535505
0.000577201
0.00061328
0.000645023
0.000672321
0.000694901
0.000712373
0.000724298
0.000730226
0.000729514
0.000722139
0.000708405
0.000688757
0.000663884
0.000634724
0.000602442
0.000568363
0.000533854
0.000500118
0.000467499
0.000437344
0.000410028
0.000385204
0.000362192
0.000340092
0.000317861
0.000294327
0.000268157
0.00023769
0.000200874
0.000157638
0.000241829
7.67442e-05
0.000387001
0.000539923
0.000651314
0.000746949
0.000833359
0.000912678
0.00098459
0.001048
0.00110501
0.0011557
0.00119967
0.00123625
0.00126463
0.00128413
0.00129306
0.0012904
0.00127614
0.00125047
0.001214
0.00116787
0.00111378
0.00105393
0.00099085
0.000927102
0.000864424
0.000804967
0.000750313
0.00070046
0.000654607
0.000611372
0.00056899
0.000525391
0.000478118
0.000423877
0.000357665
0.000273379
0.000276726
8.7561e-05
0.00051188
0.000739171
0.000896949
0.00102916
0.00114658
0.00125319
0.0013497
0.00143641
0.00151575
0.00158801
0.0016527
0.00170895
0.00175562
0.00179181
0.00181442
0.00182158
0.00181281
0.00178785
0.00174694
0.001691
0.00162174
0.00154172
0.00145422
0.00136289
0.00127105
0.001182
0.00109866
0.00102175
0.00095069
0.000883849
0.000818845
0.00075268
0.000681598
0.000600242
0.000499313
0.000358528
0.000296228
9.60514e-05
0.00061605
0.0009151
0.00111372
0.00127438
0.00141409
0.0015397
0.00165353
0.00175758
0.00185455
0.0019449
0.00202809
0.00210305
0.00216841
0.00222308
0.00226233
0.00228367
0.00228608
0.00226874
0.00223128
0.00217406
0.00209836
0.00200653
0.00190199
0.00178899
0.00167208
0.00155583
0.00144463
0.00134029
0.00124291
0.001151
0.00106177
0.000971383
0.000874732
0.000764174
0.000625412
0.000419151
6.98695e-05
0.000103444
0.000703426
0.00106658
0.00129875
0.00147947
0.00163306
0.00176984
0.00189396
0.00200941
0.00211913
0.00222374
0.00232265
0.00241469
0.0024983
0.00257226
0.00263008
0.00266895
0.00268728
0.00268362
0.00265686
0.00260658
0.00253327
0.0024386
0.00232553
0.00219835
0.00206221
0.0019228
0.00178589
0.00165476
0.00153063
0.00141258
0.00129778
0.00118177
0.00105813
0.000916914
0.000739089
0.000475592
7.09867e-05
0.000110254
0.000777129
0.00119417
0.00145184
0.00164481
0.00180497
0.00194623
0.00207461
0.00219622
0.00231425
0.00242943
0.00254118
0.00264826
0.00274908
0.00284226
0.0029196
0.00297825
0.00301607
0.00303097
0.00302105
0.00298495
0.00292216
0.00283329
0.00272039
0.00258713
0.00243869
0.00228133
0.00212202
0.00196564
0.0018149
0.00166994
0.00152835
0.00138533
0.00123336
0.00106034
0.000843066
0.000526509
7.3371e-05
0.000116771
0.000839603
0.00129908
0.00157378
0.001772
0.00193271
0.00207309
0.002201
0.00232458
0.00244719
0.00256962
0.00269136
0.00281124
0.00292775
0.00303925
0.00313614
0.00321576
0.00327549
0.00331258
0.00332437
0.0033085
0.00326331
0.00318812
0.0030837
0.0029526
0.00279933
0.00263016
0.00245281
0.00227364
0.00209709
0.00192481
0.00175531
0.0015839
0.00140225
0.00119635
0.00093947
0.000572517
7.61646e-05
0.000123182
0.000892703
0.00138247
0.00166551
0.00186286
0.00201948
0.00215495
0.00227922
0.00240178
0.00252605
0.0026529
0.00278197
0.00291228
0.00304259
0.00317068
0.00328638
0.00338718
0.00347009
0.00353182
0.0035689
0.00357803
0.00355633
0.00350172
0.00341342
0.00329243
0.00314203
0.00296782
0.00277769
0.00257916
0.00237841
0.00217891
0.0019806
0.00177941
0.00156665
0.00132674
0.00103006
0.000614582
7.89338e-05
0.000129616
0.000937804
0.00144508
0.00172768
0.00191901
0.00206848
0.00219669
0.00231565
0.00243541
0.00255933
0.00268833
0.00282226
0.00296053
0.0031024
0.00324467
0.00337763
0.00349892
0.00360526
0.00369288
0.00375763
0.00379528
0.00380174
0.00377349
0.00370803
0.00360456
0.00346463
0.00329252
0.00309564
0.00288214
0.00265968
0.00243373
0.00220606
0.0019738
0.0017284
0.00145324
0.00111636
0.000653649
8.15625e-05
0.000136168
0.000975927
0.00148707
0.00176057
0.00194206
0.0020832
0.00220366
0.00231721
0.00243361
0.00255602
0.00268536
0.00282188
0.00296553
0.00311627
0.0032697
0.00341767
0.00355787
0.00368688
0.00380056
0.00389418
0.00396263
0.00400071
0.00400343
0.00396655
0.00388725
0.00376499
0.00360217
0.0034051
0.00318188
0.00294121
0.00269039
0.00243336
0.00216894
0.00188938
0.00157755
0.00119978
0.000690548
8.40441e-05
0.000142912
0.00100788
0.00150808
0.00176457
0.00193432
0.00206819
0.00218242
0.00229198
0.00240553
0.00252589
0.00265413
0.00279104
0.00293733
0.00309371
0.00325473
0.00341472
0.0035714
0.00372135
0.00386017
0.00398268
0.00408304
0.00415498
0.00419213
0.00418847
0.00413908
0.00404109
0.00389458
0.00370413
0.00347715
0.00322269
0.00294957
0.00266388
0.00236663
0.00205143
0.00170135
0.00128164
0.00072601
8.64031e-05
0.000149931
0.00103427
0.0015078
0.00174156
0.00190038
0.00203036
0.00214176
0.0022499
0.00236164
0.00247975
0.0026056
0.00274062
0.00288654
0.00304459
0.0032092
0.00337752
0.00354739
0.00371553
0.00387749
0.00402778
0.00415995
0.00426682
0.00434067
0.00437377
0.00435905
0.00429115
0.00416749
0.00399048
0.00376615
0.00350321
0.00321134
0.00289862
0.00256842
0.00221636
0.00182635
0.00136329
0.000760724
8.86709e-05
0.00015744
0.00105521
0.0014875
0.00169752
0.00184941
0.00198038
0.00209337
0.00220279
0.0023137
0.00242927
0.00255131
0.00268202
0.00282433
0.00297911
0.00314313
0.00331542
0.00349429
0.00367686
0.00385883
0.00403461
0.00419731
0.00433894
0.0044506
0.00452287
0.00454655
0.00451369
0.00441878
0.00426175
0.0040467
0.00378123
0.00347517
0.00313806
0.00277562
0.00238585
0.00195426
0.00144609
0.000795394
9.08803e-05
0.00016722
0.00107
0.00145353
0.00164641
0.001797
0.00193284
0.00205107
0.00216336
0.00227366
0.00238598
0.00250268
0.00262652
0.00276136
0.00290812
0.00306704
0.00323832
0.00342114
0.00361332
0.00381103
0.00400878
0.00419947
0.00437448
0.00452381
0.00463651
0.00470126
0.00470743
0.00464639
0.00451543
0.00431627
0.0040547
0.00373987
0.00338207
0.00298905
0.00256139
0.00208678
0.0015315
0.000830797
9.307e-05
0.000199501
0.00108769
0.001423
0.00161096
0.00176303
0.00190332
0.00202757
0.00214242
0.00225139
0.00235949
0.00246944
0.0025839
0.00270708
0.00284219
0.00299135
0.0031562
0.00333721
0.00353327
0.00374132
0.00395631
0.00417117
0.00437686
0.00456251
0.0047157
0.00482307
0.00487128
0.00484836
0.00474894
0.00457206
0.00432108
0.00400361
0.00362985
0.00320899
0.00274411
0.00222545
0.00162104
0.000867807
9.53016e-05
7.64817e-05
0.000555409
0.00105998
0.00156045
0.00205243
0.0025306
0.00299095
0.00343117
0.00385033
0.0042484
0.00462583
0.00498329
0.00532149
0.00564107
0.00594255
0.00622638
0.0064929
0.0067424
0.00697514
0.00719139
0.00739145
0.00757564
0.00774432
0.00789789
0.00803677
0.00816135
0.00827194
0.00836857
0.00845086
0.00851771
0.00856705
0.00859547
0.00859791
0.00856924
0.00850106
0.00838367
0.00820659
0.00795906
0.00762997
0.0072065
0.00667038
0.00599123
0.00511818
0.0039823
0.00253602
0.000744378
7.87043e-05
0.000559451
0.00108444
0.00161322
0.0021364
0.00264612
0.00313681
0.0036053
0.00405035
0.00447193
0.0048707
0.00524761
0.00560366
0.00593977
0.00625672
0.00655518
0.00683567
0.00709867
0.00734459
0.00757385
0.0077869
0.00798419
0.00816624
0.00833355
0.00848666
0.00862606
0.00875214
0.00886496
0.00896405
0.00904818
0.00911506
0.00916102
0.00918056
0.00916679
0.00911243
0.00900764
0.00884159
0.00860263
0.00827814
0.00785318
0.00730767
0.00661216
0.00572438
0.00459675
0.00321117
0.00163042
8.06644e-05
0.000554036
0.00108941
0.00164061
0.00219206
0.00273149
0.00325066
0.00374516
0.00421334
0.00465527
0.00507196
0.00546476
0.00583507
0.00618416
0.00651309
0.00682277
0.00711395
0.00738727
0.00764332
0.00788267
0.00810593
0.0083137
0.00850663
0.00868534
0.0088505
0.00900271
0.00914246
0.00926985
0.00938436
0.00948461
0.00956818
0.00963129
0.00966841
0.00967195
0.00963488
0.00954747
0.00939881
0.00917696
0.00886871
0.00845859
0.00792737
0.00725006
0.00639573
0.00533616
0.00407795
0.00273145
8.19198e-05
0.000536375
0.00107313
0.00164357
0.00222172
0.00278888
0.00333389
0.00385124
0.00433912
0.00479787
0.00522895
0.00563419
0.00601543
0.00637429
0.00671215
0.00703014
0.00732921
0.00761017
0.00787376
0.00812072
0.00835181
0.00856778
0.00876941
0.00895743
0.00913263
0.00929576
0.00944747
0.00958791
0.00971649
0.00983168
0.00993096
0.0100107
0.0100655
0.0100881
0.0100712
0.0100054
0.00987994
0.00968316
0.00940203
0.00902182
0.00852585
0.00789526
0.00711063
0.00616056
0.00506717
0.00394323
8.20281e-05
0.000499228
0.00103759
0.00163125
0.00223542
0.00282602
0.00339135
0.00392604
0.0044285
0.00489943
0.00534074
0.0057547
0.00614351
0.00650908
0.00685305
0.00717674
0.00748123
0.00776748
0.00803637
0.00828876
0.0085256
0.00874778
0.00895618
0.00915162
0.00933496
0.00950719
0.00966922
0.00982135
0.00996281
0.0100917
0.0102055
0.0103008
0.0103732
0.0104159
0.0104214
0.0103807
0.0102834
0.0101184
0.00987334
0.00953487
0.00908962
0.00852502
0.00783122
0.00700858
0.00608613
0.00515677
8.10087e-05
0.000437938
0.00099614
0.00162358
0.00224899
0.00285289
0.00342883
0.0039727
0.00448294
0.0049604
0.00540722
0.00582594
0.00621896
0.00658833
0.00693584
0.00726289
0.00757064
0.00786011
0.00813225
0.00838809
0.00862872
0.00885524
0.00906856
0.00926945
0.00945877
0.00963791
0.00980838
0.00997084
0.0101242
0.0102656
0.0103921
0.0105012
0.01059
0.0106529
0.0106822
0.0106691
0.0106038
0.0104753
0.0102725
0.00998328
0.00959795
0.00910952
0.00851471
0.00781986
0.00705339
0.0062829
8.00752e-05
0.000356309
0.000973581
0.00164297
0.00227553
0.00287769
0.00345318
0.00399814
0.00450984
0.00498873
0.00543695
0.00585708
0.00625163
0.00662254
0.00697168
0.00730046
0.00760991
0.00790106
0.0081749
0.00843256
0.00867547
0.00890504
0.00912211
0.00932689
0.00951998
0.00970365
0.00988082
0.0100528
0.010217
0.0103668
0.0105001
0.0106175
0.0107176
0.0107968
0.0108481
0.0108629
0.0108311
0.0107416
0.0105843
0.0103474
0.0100252
0.0096158
0.00911943
0.00854365
0.00791246
0.00727271
9.40809e-05
0.000366869
0.000977114
0.00164416
0.00227657
0.00287884
0.00345444
0.00399956
0.0045115
0.00499066
0.00543918
0.00585961
0.00625444
0.0066256
0.00697496
0.00730391
0.00761348
0.00790472
0.00817862
0.00843628
0.00867917
0.00890866
0.00912556
0.00933009
0.00952292
0.00970632
0.00988316
0.0100584
0.0102396
0.0103998
0.0105374
0.010659
0.0107674
0.0108623
0.010933
0.0109651
0.0109554
0.0109015
0.0107908
0.0106044
0.0103425
0.0100096
0.00960631
0.00913759
0.00862262
0.00809387
0.000124102
0.000602074
0.00127782
0.00191872
0.00253798
0.00314422
0.0037284
0.00428717
0.0048189
0.0053224
0.00579738
0.00624441
0.0066645
0.00705886
0.00742888
0.00777583
0.00810093
0.00840537
0.00869035
0.00895708
0.00920689
0.00944112
0.00966076
0.00986607
0.0100565
0.0102288
0.0103732
0.0104587
0.0103687
0.0104287
0.0105506
0.0106681
0.0107746
0.0108675
0.010936
0.0109664
0.0109628
0.01095
0.0108802
0.0107341
0.01052
0.0102561
0.00993933
0.00956476
0.00914941
0.00871801
0.000131449
0.000786472
0.00149723
0.00214244
0.00277085
0.00338545
0.0039792
0.00454934
0.00509446
0.00561323
0.00610453
0.00656788
0.00700352
0.00741214
0.00779477
0.00815261
0.008487
0.00879934
0.00909108
0.00936368
0.00961857
0.00985723
0.0100809
0.0102904
0.0104855
0.0106638
0.0108184
0.010936
0.011008
0.011107
0.0112291
0.0113507
0.0114549
0.0115234
0.0115159
0.0113314
0.0110068
0.010952
0.0108792
0.0107306
0.0105275
0.0103271
0.0100913
0.00979515
0.00946024
0.00911663
0.000128113
0.000843776
0.00162043
0.00231131
0.00297624
0.00362035
0.00423874
0.00482892
0.00539004
0.00592171
0.00642369
0.00689603
0.00733913
0.00775381
0.00814117
0.00850257
0.00883958
0.00915392
0.00944738
0.00972175
0.00997882
0.0102204
0.0104481
0.0106635
0.0108673
0.0110588
0.0112353
0.0113924
0.0115317
0.0116707
0.0118126
0.0119481
0.0120626
0.0121362
0.0121365
0.0120192
0.0117647
0.0112811
0.0109282
0.0107504
0.0105081
0.0103109
0.0100915
0.0098232
0.00953557
0.00926974
0.000124049
0.000871398
0.00168022
0.00241976
0.00312972
0.00381304
0.00446533
0.00508369
0.00566717
0.00621588
0.00673041
0.00721166
0.00766075
0.00807909
0.00846827
0.00883012
0.00916663
0.00947993
0.0097722
0.0100457
0.0103025
0.0105447
0.0107745
0.0109936
0.0112033
0.011404
0.0115946
0.0117735
0.0119416
0.0121036
0.0122618
0.0124115
0.0125424
0.0126397
0.0126819
0.0126441
0.0125063
0.0122622
0.0120112
0.0117721
0.0113962
0.0104427
0.0101195
0.00983093
0.00952287
0.0092691
0.000121961
0.000876664
0.0016982
0.00248577
0.00324466
0.00397161
0.00466146
0.0053111
0.0059196
0.00648746
0.00701595
0.00750675
0.00796178
0.00838316
0.00877316
0.00913415
0.00946866
0.00977926
0.0100686
0.0103392
0.0105936
0.0108342
0.0110634
0.011283
0.0114947
0.0116993
0.0118967
0.0120864
0.0122686
0.0124447
0.0126154
0.0127778
0.012925
0.0130463
0.0131272
0.0131511
0.013103
0.012984
0.0128265
0.0126406
0.0123661
0.0119245
0.0115384
0.0110748
0.0101393
0.00937046
0.000121734
0.000855528
0.00169436
0.00252931
0.00333861
0.00411084
0.00483912
0.00552022
0.00615359
0.00674034
0.00728246
0.00778241
0.00824289
0.00866674
0.00905688
0.00941629
0.00974798
0.010055
0.0103403
0.0106069
0.0108576
0.0110951
0.0113217
0.0115398
0.0117509
0.0119564
0.0121567
0.0123518
0.0125417
0.0127269
0.012907
0.0130797
0.01324
0.0133801
0.0134895
0.0135559
0.0135685
0.0135252
0.0134388
0.0133167
0.0131398
0.0128843
0.0125906
0.0122357
0.0117465
0.011257
0.000122441
0.000829209
0.00168625
0.00256721
0.0034261
0.00424285
0.00500833
0.00571925
0.00637571
0.0069796
0.0075338
0.0080416
0.00850647
0.00893195
0.0093216
0.00967892
0.0100074
0.0103105
0.0105916
0.010854
0.0111006
0.0113344
0.011558
0.0117737
0.0119834
0.0121885
0.0123897
0.0125876
0.0127819
0.0129727
0.0131592
0.0133392
0.0135089
0.0136621
0.0137909
0.0138859
0.0139389
0.0139466
0.013913
0.0138434
0.013733
0.0135713
0.0133642
0.0131115
0.0127998
0.0124593
0.000123886
0.000808472
0.00168619
0.00261118
0.00351677
0.00437506
0.00517475
0.00591256
0.00658932
0.00720787
0.00777202
0.00828594
0.00875387
0.00918005
0.0095686
0.00992356
0.0102488
0.0105483
0.0108255
0.0110839
0.011327
0.0115576
0.0117785
0.0119922
0.0122006
0.0124051
0.0126067
0.0128059
0.0130026
0.0131965
0.0133866
0.0135708
0.0137458
0.0139068
0.0140474
0.0141604
0.0142393
0.0142806
0.014285
0.0142553
0.0141905
0.0140857
0.0139414
0.0137601
0.0135397
0.0132881
0.000125904
0.000797356
0.00169999
0.00266683
0.00361486
0.00451019
0.0053399
0.00610085
0.00679464
0.00742508
0.0079969
0.00851514
0.00898483
0.00941083
0.00979785
0.0101504
0.0104727
0.0107689
0.011043
0.0112986
0.0115391
0.0117677
0.0119871
0.0121997
0.0124075
0.0126119
0.0128139
0.0130138
0.0132115
0.0134065
0.0135976
0.0137828
0.0139593
0.014123
0.0142689
0.0143912
0.0144848
0.0145462
0.0145749
0.014572
0.0145376
0.01447
0.0143689
0.0142359
0.0140716
0.0138792
0.000128259
0.000796242
0.00172829
0.00273456
0.00372013
0.0046473
0.00550233
0.00628239
0.00698985
0.00762943
0.00820674
0.00872767
0.00919796
0.0096231
0.0100083
0.0103585
0.0106784
0.0109722
0.0112442
0.0114982
0.0117375
0.0119655
0.0121848
0.0123978
0.0126062
0.0128113
0.0130139
0.0132143
0.0134121
0.0136065
0.0137963
0.0139797
0.0141539
0.0143157
0.014461
0.0145852
0.0146843
0.0147551
0.0147966
0.0148088
0.0147922
0.0147463
0.0146715
0.0145692
0.0144407
0.0142881
0.000130707
0.000803667
0.00176859
0.00281148
0.00382958
0.00478339
0.00565908
0.00645434
0.00717229
0.00781848
0.00839937
0.00892159
0.00939155
0.00981535
0.0101987
0.0105468
0.0108648
0.0111572
0.0114283
0.0116819
0.0119217
0.0121506
0.0123713
0.012586
0.0127962
0.013003
0.0132068
0.0134075
0.0136046
0.0137972
0.0139838
0.0141626
0.0143313
0.0144871
0.0146268
0.0147467
0.0148437
0.0149151
0.0149598
0.0149774
0.0149682
0.0149325
0.0148711
0.0147853
0.0146768
0.0145479
0.000133056
0.000817469
0.00181696
0.00289325
0.00393909
0.00491473
0.00580683
0.00661374
0.00733935
0.00798996
0.00857279
0.00909516
0.00956411
0.00998626
0.0103678
0.0107143
0.0110311
0.0113229
0.0115942
0.0118488
0.0120904
0.0123217
0.0125453
0.012763
0.0129761
0.0131853
0.0133906
0.0135915
0.0137874
0.0139769
0.0141585
0.0143305
0.0144908
0.0146372
0.0147669
0.0148775
0.0149663
0.0150315
0.0150718
0.015087
0.0150772
0.015043
0.0149853
0.0149057
0.014806
0.0146889
0.000135185
0.000835409
0.00186932
0.00297547
0.00404463
0.00503786
0.00594266
0.00675817
0.007489
0.00814219
0.00872562
0.00924726
0.0097147
0.0101351
0.0105149
0.0108602
0.0111764
0.0114686
0.0117411
0.011998
0.0122425
0.0124774
0.0127051
0.0129268
0.0131436
0.0133556
0.0135625
0.0137634
0.0139572
0.0141425
0.0143175
0.0144807
0.0146301
0.0147641
0.0148806
0.0149779
0.015054
0.0151076
0.015138
0.0151448
0.0151284
0.0150893
0.0150287
0.0149479
0.0148493
0.0147358
0.000137027
0.000855486
0.00192212
0.00305444
0.00414298
0.00515015
0.00606449
0.00688601
0.00762003
0.00827426
0.00885723
0.00937745
0.00984305
0.0102616
0.0106399
0.0109845
0.0113008
0.011594
0.0118687
0.0121286
0.012377
0.0126166
0.012849
0.0130754
0.0132962
0.0135112
0.0137195
0.0139198
0.0141106
0.0142902
0.0144571
0.0146095
0.014746
0.0148652
0.0149659
0.0150467
0.0151067
0.0151451
0.0151614
0.0151557
0.0151283
0.0150799
0.0150116
0.014925
0.0148225
0.0147071
0.000138556
0.000876072
0.00197267
0.00312752
0.00423194
0.00524994
0.00617118
0.00699652
0.00773204
0.00838606
0.0089677
0.009486
0.00994953
0.0103662
0.0107434
0.0110875
0.0114044
0.0116993
0.0119767
0.0122404
0.0124935
0.0127381
0.0129758
0.0132071
0.0134319
0.0136495
0.0138585
0.0140573
0.0142439
0.0144166
0.0145736
0.0147135
0.0148352
0.0149377
0.0150204
0.0150826
0.015124
0.0151444
0.0151438
0.0151226
0.0150812
0.0150205
0.0149415
0.0148458
0.014736
0.0146154
0.000139771
0.000895945
0.00201915
0.00319307
0.00431033
0.0053365
0.00626241
0.00708977
0.00782537
0.00847815
0.00905777
0.00957372
0.010035
0.0104499
0.010826
0.01117
0.0114879
0.0117849
0.0120656
0.0123335
0.0125915
0.0128415
0.0130844
0.0133205
0.0135489
0.0137685
0.0139773
0.0141733
0.0143544
0.0145186
0.0146641
0.0147899
0.0148951
0.0149793
0.0150422
0.0150841
0.0151052
0.0151058
0.0150864
0.0150477
0.0149902
0.014915
0.0148232
0.0147163
0.0145969
0.0144687
0.000140684
0.000914267
0.00206053
0.00325035
0.00437777
0.00540987
0.00633856
0.00716642
0.00790091
0.0085516
0.00912861
0.00964189
0.0101008
0.010514
0.0108891
0.0112332
0.0115523
0.0118518
0.0121359
0.0124083
0.0126713
0.0129265
0.0131744
0.0134147
0.0136461
0.0138667
0.0140742
0.0142661
0.0144401
0.0145942
0.0147267
0.0148368
0.014924
0.0149884
0.0150304
0.0150508
0.0150503
0.0150298
0.0149904
0.0149327
0.0148578
0.0147665
0.0146602
0.0145405
0.0144099
0.0142722
0.000141316
0.00093052
0.00209637
0.00329924
0.00443451
0.0054706
0.00640048
0.00722754
0.00795994
0.0086078
0.00918172
0.00969204
0.0101485
0.0105598
0.0109341
0.0112784
0.0115989
0.0119008
0.0121885
0.0124652
0.012733
0.0129932
0.0132457
0.0134895
0.0137229
0.0139433
0.0141482
0.0143346
0.0145
0.0146425
0.0147605
0.0148535
0.0149215
0.014965
0.0149851
0.0149829
0.01496
0.0149177
0.0148572
0.0147797
0.0146862
0.0145778
0.0144558
0.0143218
0.0141785
0.0140296
0.000141689
0.000944427
0.00212662
0.00334002
0.00448113
0.00551957
0.00644927
0.00727444
0.00800392
0.00864834
0.00921876
0.00972586
0.0101796
0.0105891
0.0109625
0.0113071
0.0116289
0.0119332
0.0122243
0.0125051
0.0127774
0.013042
0.0132983
0.0135448
0.0137791
0.0139983
0.0141992
0.0143786
0.0145341
0.0146635
0.0147657
0.0148405
0.0148881
0.0149098
0.0149072
0.014882
0.0148361
0.0147713
0.0146892
0.0145911
0.0144784
0.014352
0.0142131
0.0140636
0.013906
0.0137444
0.000141826
0.000955891
0.00215148
0.00337319
0.00451841
0.00555777
0.00648613
0.00730852
0.00803437
0.00867486
0.00924142
0.00974507
0.010196
0.0106036
0.010976
0.0113206
0.0116436
0.0119502
0.0122444
0.0125289
0.0128052
0.0130736
0.0133329
0.0135812
0.0138154
0.0140321
0.0142277
0.014399
0.0145431
0.0146583
0.0147436
0.014799
0.0148255
0.0148248
0.0147989
0.0147501
0.0146809
0.0145934
0.0144893
0.0143704
0.0142378
0.0140926
0.013936
0.0137697
0.0135964
0.0134201
0.000141751
0.000964926
0.00217127
0.00339934
0.00454714
0.00558621
0.00651227
0.0073311
0.00805276
0.0086889
0.00925132
0.00975131
0.0101993
0.0106048
0.0109761
0.0113206
0.0116445
0.011953
0.0122498
0.0125376
0.0128173
0.0130887
0.0133503
0.0135994
0.0138325
0.0140456
0.0142349
0.0143968
0.0145286
0.0146285
0.0146959
0.0147313
0.0147361
0.0147124
0.014663
0.0145906
0.0144979
0.0143875
0.0142615
0.0141215
0.0139687
0.0138042
0.0136291
0.0134449
0.0132543
0.0130615
0.000141484
0.000971616
0.00218633
0.00341905
0.0045681
0.00560582
0.00652875
0.00734341
0.00806043
0.00869191
0.00924996
0.00974613
0.010191
0.0105942
0.0109642
0.0113083
0.0116329
0.0119428
0.0122419
0.0125322
0.0128147
0.0130885
0.0133515
0.0136006
0.0138316
0.0140403
0.0142223
0.014374
0.0144926
0.0145765
0.0146254
0.0146403
0.014623
0.0145762
0.0145031
0.014407
0.0142911
0.0141581
0.0140102
0.0138492
0.0136762