/*--------------------------------*- C++ -*----------------------------------*\
  =========                 |
  \\      /  F ield         | OpenFOAM: The Open Source CFD Toolbox
   \\    /   O peration     | Website:  https://openfoam.org
    \\  /    A nd           | Version:  7
     \\/     M anipulation  |
\*---------------------------------------------------------------------------*/
FoamFile
{
    version     2.0;
    format      ascii;
    class       volScalarField;
    location    "0.4";
    object      p;
}
// * * * * * * * * * * * * * * * * * * * * * * * * * * * * * * * * * * * * * //

dimensions      [1 -1 -2 0 0 0 0];

internalField   nonuniform List<scalar> 
9072
(
893.83
893.163
896.246
901.546
907.697
913.603
918.823
923.299
927.061
930.212
932.874
935.163
937.185
939.031
940.777
942.489
944.222
946.025
947.944
950.024
952.313
954.859
957.724
960.975
964.698
968.993
973.987
979.832
986.718
994.884
1004.65
1016.37
1030.37
1046.98
1066.59
1089.54
1115.84
1144.9
1175.2
1204.17
1228.84
1246.68
1252.06
1254.22
1269.67
1292.76
864.315
863.151
865.518
870.142
875.744
881.197
886.173
890.522
894.238
897.39
900.078
902.403
904.462
906.342
908.118
909.854
911.609
913.433
915.376
917.487
919.815
922.416
925.353
928.701
932.547
937.001
942.193
948.285
955.47
963.987
974.115
986.229
1000.72
1017.98
1038.41
1062.36
1089.89
1120.47
1152.55
1183.29
1209.1
1227.47
1229.64
1224.27
1229.81
1256.6
834.12
833.178
835.23
839.092
843.874
848.721
853.258
857.306
860.826
863.855
866.465
868.74
870.765
872.619
874.374
876.094
877.837
879.658
881.608
883.739
886.107
888.772
891.801
895.276
899.29
903.958
909.419
915.84
923.422
932.411
943.085
955.808
970.989
989.036
1010.33
1035.16
1063.58
1095.03
1127.98
1159.58
1185.75
1204.38
1206.9
1197.78
1192.84
1222.71
803.652
803.237
805.177
808.468
812.568
816.817
820.864
824.531
827.763
830.576
833.021
835.167
837.088
838.855
840.537
842.195
843.888
845.671
847.599
849.728
852.116
854.827
857.935
861.524
865.695
870.567
876.284
883.019
890.978
900.407
911.587
924.856
940.617
959.272
981.169
1006.54
1035.35
1067.01
1100
1131.6
1157.72
1175.97
1180.73
1173.11
1162.27
1193.28
773.186
773.371
775.261
778.155
781.723
785.447
789.027
792.304
795.217
797.77
800.005
801.977
803.751
805.393
806.966
808.531
810.145
811.865
813.747
815.849
818.233
820.966
824.126
827.801
832.095
837.133
843.061
850.055
858.323
868.11
879.692
893.389
909.578
928.636
950.869
976.448
1005.27
1036.69
1069.26
1100.51
1126.67
1145.03
1152.37
1148.41
1140.15
1169.91
742.676
743.498
745.368
747.968
751.104
754.371
757.52
760.417
763.007
765.289
767.294
769.072
770.679
772.175
773.62
775.074
776.593
778.233
780.053
782.111
784.472
787.207
790.395
794.129
798.515
803.68
809.772
816.97
825.478
835.539
847.421
861.426
877.901
897.189
919.548
945.09
973.651
1004.59
1036.54
1067.31
1093.66
1112.83
1122.84
1123.41
1120.91
1153.25
712.031
713.457
715.377
717.771
720.553
723.418
726.172
728.709
730.982
732.99
734.761
736.336
737.766
739.107
740.416
741.749
743.163
744.714
746.461
748.464
750.789
753.51
756.708
760.477
764.927
770.185
776.401
783.751
792.438
802.696
814.785
828.986
845.617
864.982
887.293
912.611
940.728
971.011
1002.22
1032.45
1058.99
1079.33
1091.71
1097.48
1103.07
1141.27
681.239
683.185
685.212
687.476
689.971
692.483
694.877
697.075
699.044
700.785
702.322
703.693
704.944
706.127
707.295
708.503
709.807
711.264
712.931
714.872
717.152
719.846
723.039
726.825
731.314
736.635
742.936
750.391
759.198
769.584
781.794
796.089
812.756
832.064
854.18
879.12
906.65
936.161
966.543
996.16
1022.78
1044.25
1059.05
1069.77
1085.15
1131.03
650.311
652.685
654.851
657.032
659.288
661.492
663.559
665.443
667.123
668.606
669.916
671.086
672.159
673.183
674.209
675.292
676.484
677.844
679.429
681.301
683.529
686.188
689.363
693.149
697.656
703.012
709.364
716.882
725.757
736.206
748.46
762.758
779.356
798.489
820.285
844.724
871.555
900.201
929.676
958.584
985.105
1007.48
1024.65
1039.91
1065.43
1119.96
619.252
621.982
624.292
626.411
628.464
630.392
632.162
633.755
635.164
636.401
637.49
638.465
639.364
640.232
641.118
642.075
643.156
644.417
645.917
647.718
649.889
652.506
655.652
659.424
663.932
669.3
675.672
683.215
692.111
702.566
714.795
729.015
745.453
764.313
785.688
809.528
835.571
863.272
891.754
919.825
946.005
968.916
988.12
1007.39
1042.32
1105.6
588.06
591.097
593.54
595.604
597.472
599.152
600.65
601.973
603.127
604.131
605.009
605.793
606.522
607.237
607.985
608.818
609.788
610.951
612.366
614.094
616.204
618.772
621.881
625.628
630.12
635.479
641.846
649.38
658.256
668.667
680.813
694.886
711.088
729.594
750.468
773.631
798.813
825.497
852.89
879.956
905.479
928.405
948.949
971.181
1014.27
1085.51
556.738
560.047
562.606
564.609
566.305
567.755
569.002
570.074
570.989
571.77
572.445
573.045
573.607
574.172
574.785
575.496
576.356
577.421
578.749
580.402
582.448
584.963
588.03
591.742
596.205
601.538
607.876
615.373
624.194
634.518
646.53
660.4
676.303
694.39
714.698
737.126
761.392
786.993
813.192
839.052
863.53
885.788
906.6
930.003
979.549
1056.58
525.287
528.847
531.498
533.432
534.962
536.197
537.21
538.047
538.736
539.305
539.784
540.204
540.603
541.02
541.499
542.088
542.838
543.805
545.046
546.623
548.603
551.061
554.079
557.748
562.171
567.463
573.754
581.189
589.925
600.128
611.963
625.584
641.14
658.759
678.457
700.109
723.419
747.882
772.782
797.219
820.214
840.985
860.622
882.549
936.162
1013.98
493.711
497.511
500.227
502.079
503.447
504.476
505.268
505.883
506.358
506.724
507.011
507.255
507.491
507.759
508.103
508.569
509.209
510.076
511.228
512.726
514.637
517.034
519.998
523.618
527.991
533.23
539.458
546.814
555.443
565.496
577.125
590.462
605.637
622.756
641.819
662.678
685.015
708.309
731.826
754.634
775.697
794.082
810.743
827.64
881.976
949.731
462.015
466.054
468.81
470.563
471.769
472.602
473.184
473.586
473.854
474.022
474.123
474.191
474.265
474.384
474.591
474.932
475.459
476.225
477.285
478.702
480.54
482.873
485.779
489.343
493.66
498.836
504.99
512.25
520.754
530.639
542.036
555.066
569.836
586.437
604.855
624.92
646.29
668.406
690.482
711.485
730.189
745.244
756.767
764.227
813.192
848.708
430.213
434.469
437.257
438.907
439.953
440.6
440.983
441.185
441.258
441.239
441.162
441.065
440.985
440.961
441.038
441.262
441.682
442.352
443.327
444.667
446.436
448.707
451.554
455.061
459.316
464.42
470.485
477.634
485.99
495.677
506.81
519.492
533.819
549.866
567.608
586.855
607.232
628.133
648.682
667.683
683.572
694.282
698.13
691.49
715.733
689.089
24.7621
24.7564
24.7526
24.7474
24.7433
24.7412
24.7414
24.7438
24.7476
24.7523
24.7567
24.7602
24.7618
24.7606
24.7559
24.7471
24.7336
24.7151
24.6915
24.6631
24.6303
24.5937
24.554
24.5123
24.4694
24.4263
24.3838
24.3428
24.3041
24.2682
24.2358
24.2072
24.1828
24.163
24.1477
24.1371
24.1307
24.1284
24.7334
24.7284
24.7255
24.7201
24.7153
24.7123
24.7116
24.7129
24.7159
24.7198
24.7236
24.7266
24.7277
24.7262
24.7213
24.7124
24.699
24.6807
24.6575
24.6296
24.5974
24.5614
24.5224
24.4812
24.4388
24.3961
24.3541
24.3135
24.275
24.2393
24.2069
24.1784
24.1541
24.1342
24.1188
24.108
24.1013
24.0993
24.7048
24.6998
24.6973
24.6919
24.6867
24.6831
24.6816
24.6822
24.6844
24.6876
24.6907
24.6931
24.6938
24.6919
24.6869
24.678
24.6646
24.6467
24.6239
24.5966
24.5649
24.5295
24.4911
24.4505
24.4085
24.3663
24.3244
24.2838
24.2454
24.2097
24.1774
24.1488
24.1244
24.1044
24.0889
24.0779
24.071
24.0695
24.6766
24.6704
24.668
24.6627
24.6572
24.6532
24.6512
24.6513
24.6529
24.6555
24.6582
24.6602
24.6605
24.6585
24.6533
24.6444
24.6312
24.6135
24.5912
24.5642
24.533
24.4981
24.4601
24.4198
24.3781
24.336
24.2941
24.2535
24.215
24.1792
24.1467
24.118
24.0934
24.0733
24.0576
24.0466
24.0395
24.0383
24.6487
24.6407
24.6378
24.6325
24.6268
24.6227
24.6204
24.6202
24.6214
24.6238
24.6261
24.628
24.6282
24.626
24.6208
24.6119
24.5988
24.5814
24.5593
24.5326
24.5018
24.4672
24.4294
24.3892
24.3475
24.3053
24.2633
24.2225
24.1837
24.1475
24.1148
24.0858
24.0611
24.0409
24.0251
24.014
24.007
24.0056
24.6206
24.6106
24.607
24.6016
24.5958
24.5917
24.5894
24.589
24.5901
24.5924
24.5946
24.5965
24.5966
24.5944
24.5893
24.5804
24.5674
24.5502
24.5282
24.5018
24.4711
24.4366
24.3989
24.3586
24.3168
24.2743
24.232
24.1908
24.1515
24.1149
24.0817
24.0525
24.0276
24.0072
23.9914
23.9802
23.9735
23.9721
24.5922
24.58
24.5758
24.5701
24.5643
24.5603
24.5582
24.5578
24.559
24.5613
24.5636
24.5655
24.5657
24.5636
24.5586
24.5498
24.5369
24.5197
24.4979
24.4716
24.4409
24.4064
24.3685
24.3281
24.2859
24.243
24.2002
24.1584
24.1186
24.0814
24.0477
24.0181
23.9928
23.9723
23.9564
23.9453
23.9389
23.9378
24.5631
24.5486
24.5442
24.5379
24.5323
24.5285
24.5268
24.5265
24.528
24.5305
24.533
24.5351
24.5355
24.5335
24.5286
24.5199
24.5071
24.4901
24.4683
24.4419
24.4111
24.3764
24.3382
24.2974
24.2548
24.2114
24.168
24.1256
24.085
24.0472
24.0129
23.9827
23.957
23.9362
23.9203
23.9092
23.9031
23.9024
24.5333
24.5162
24.5122
24.5051
24.4999
24.4964
24.4952
24.4953
24.497
24.4998
24.5026
24.5051
24.5058
24.504
24.4994
24.4908
24.4781
24.4611
24.4393
24.4127
24.3818
24.3467
24.3081
24.2668
24.2236
24.1795
24.1354
24.0923
24.0509
24.0123
23.9772
23.9464
23.9202
23.899
23.8829
23.8718
23.866
23.8656
24.5026
24.4826
24.4801
24.4718
24.4672
24.464
24.4635
24.464
24.466
24.4693
24.4725
24.4754
24.4765
24.475
24.4707
24.4624
24.4499
24.4329
24.411
24.3842
24.353
24.3174
24.2783
24.2363
24.1923
24.1474
24.1025
24.0584
24.0162
23.9768
23.9409
23.9093
23.8824
23.8607
23.8442
23.833
23.8275
23.8275
24.4708
24.4476
24.4479
24.4381
24.4341
24.4315
24.4317
24.4327
24.4351
24.4388
24.4426
24.4459
24.4475
24.4465
24.4426
24.4347
24.4223
24.4054
24.3834
24.3564
24.3248
24.2887
24.2488
24.2059
24.161
24.1151
24.0691
24.0241
23.9809
23.9405
23.9037
23.8713
23.8437
23.8213
23.8043
23.7929
23.7876
23.7879
24.4375
24.4109
24.4161
24.404
24.4007
24.3989
24.3999
24.4015
24.4041
24.4084
24.4128
24.4166
24.4188
24.4185
24.415
24.4075
24.3954
24.3786
24.3566
24.3294
24.2973
24.2605
24.2198
24.176
24.1299
24.0827
24.0355
23.9892
23.9448
23.9034
23.8656
23.8323
23.8039
23.7807
23.7631
23.7513
23.7461
23.7468
24.4025
24.3724
24.3851
24.37
24.3674
24.3663
24.3682
24.3704
24.3733
24.3781
24.3833
24.3876
24.3905
24.3908
24.3879
24.3809
24.3691
24.3525
24.3305
24.3031
24.2705
24.2331
24.1914
24.1464
24.099
24.0504
24.0016
23.9539
23.9081
23.8654
23.8265
23.7921
23.7628
23.7388
23.7204
23.7081
23.703
23.7042
24.3653
24.3327
24.3559
24.3371
24.3346
24.3343
24.3372
24.3397
24.3427
24.3481
24.3541
24.3591
24.3627
24.3638
24.3615
24.355
24.3437
24.3273
24.3053
24.2776
24.2446
24.2064
24.1637
24.1173
24.0685
24.0182
23.9677
23.9182
23.8707
23.8264
23.7861
23.7505
23.7201
23.6952
23.6761
23.6633
23.6584
23.6599
24.3261
24.2906
24.328
24.3049
24.3021
24.3032
24.3072
24.3099
24.3126
24.3185
24.3255
24.3312
24.3355
24.3375
24.3359
24.33
24.3193
24.3031
24.2811
24.2532
24.2195
24.1804
24.1366
24.0888
24.0382
23.9861
23.9337
23.8821
23.8327
23.7864
23.7444
23.7073
23.6757
23.6497
23.6298
23.6167
23.612
23.614
24.286
24.2365
24.2983
24.2677
24.266
24.2714
24.2773
24.2801
24.2824
24.2889
24.2969
24.3033
24.3082
24.311
24.3102
24.3051
24.295
24.2793
24.2575
24.2295
24.1953
24.1553
24.11
24.0606
24.0082
23.954
23.8995
23.8457
23.7941
23.7457
23.7016
23.6627
23.6294
23.6023
23.5816
23.5683
23.5639
23.5664
380.296
384.795
387.658
389.179
389.998
390.387
390.491
390.411
390.206
389.923
389.598
389.27
388.977
388.76
388.663
388.732
389.015
389.563
390.429
391.672
393.352
395.539
398.305
401.724
405.876
410.851
416.751
423.687
431.765
441.079
451.715
463.758
477.288
492.365
508.946
526.816
545.542
564.423
582.418
598.026
609.044
612.052
601.861
569.048
501.219
259.151
311.773
316.619
319.449
320.813
321.423
321.547
321.344
320.933
320.395
319.787
319.155
318.541
317.988
317.537
317.233
317.12
317.245
317.656
318.4
319.532
321.109
323.195
325.856
329.156
333.158
337.934
343.575
350.179
357.829
366.578
376.461
387.538
399.89
413.587
428.6
444.697
461.378
477.831
492.849
504.702
510.906
507.692
489.022
444.243
360.621
245.709
242.76
247.725
250.438
251.716
252.218
252.151
251.682
250.967
250.112
249.189
248.253
247.352
246.532
245.837
245.315
245.01
244.968
245.233
245.848
246.861
248.326
250.306
252.864
256.051
259.905
264.477
269.849
276.123
283.363
291.56
300.674
310.73
321.844
334.167
347.745
362.38
377.535
392.328
405.478
415.254
419.454
415.152
398.431
364.575
311.687
258.11
173.069
177.692
180.447
181.682
182.087
181.837
181.1
180.073
178.892
177.639
176.377
175.159
174.039
173.067
172.294
171.772
171.546
171.655
172.136
173.03
174.39
176.285
178.781
181.913
185.676
190.083
195.227
201.247
208.204
215.979
224.377
233.37
243.172
254.134
266.447
280.025
294.278
308.256
320.622
329.668
333.614
330.37
317.349
291.949
252.623
204.389
102.949
106.658
109.223
110
110.185
109.754
108.762
107.452
105.983
104.433
102.864
101.337
99.9177
98.6639
97.6368
96.8978
96.4926
96.4532
96.8058
97.5758
98.815
100.616
103.07
106.196
109.899
114.119
118.998
124.827
131.743
139.383
147.162
154.927
163.133
172.637
183.853
197.036
211.376
225.67
238.393
247.726
252.436
251.226
242.094
223.047
193.066
155.264
39.2673
40.4193
40.9137
40.9525
41.3973
41.2565
40.4291
39.3
38.0521
36.7219
35.3531
34.0018
32.7347
31.6046
30.666
29.9802
29.5786
29.4755
29.6756
30.1759
31.0127
32.3035
34.1953
36.7228
39.6884
42.906
46.5823
51.3524
57.6993
64.8929
71.4561
76.8909
81.973
88.3101
97.8491
110.944
126.698
143.284
158.259
168.992
175.265
177.033
172.548
160.183
139.825
114.051
6.17986
3.93577
4.23182
4.6854
5.52465
5.91745
5.86376
5.63332
5.33377
4.97863
4.58962
4.19056
3.80996
3.46482
3.17223
2.95546
2.82
2.76517
2.78694
2.87442
3.03348
3.31395
3.79243
4.50127
5.32915
6.12452
6.93443
8.0668
10.0427
13.0698
15.6127
16.5543
16.1734
15.9822
18.6771
27.1056
40.8767
59.3058
78.3652
91.4079
99.809
105.933
107.157
101.409
89.4812
73.4639
-1.49205
-1.11318
-1.1111
-1.24406
-1.25773
-1.25506
-1.25919
-1.26292
-1.26674
-1.27203
-1.27936
-1.28827
-1.29834
-1.30924
-1.32065
-1.33221
-1.34374
-1.35524
-1.36684
-1.37897
-1.39165
-1.40405
-1.41497
-1.425
-1.43646
-1.45112
-1.46553
-1.46924
-1.3949
-1.04433
-0.663682
-0.756341
-1.6258
-3.11044
-5.22039
-8.77647
-13.2732
-8.77582
6.36185
15.9218
23.024
34.3681
42.9331
43.7984
39.6336
32.8301
-1.33835
-1.32298
-1.29201
-1.27468
-1.25424
-1.2372
-1.22564
-1.21782
-1.21295
-1.21077
-1.21106
-1.21353
-1.218
-1.2243
-1.2323
-1.24188
-1.25289
-1.26522
-1.27876
-1.29338
-1.30889
-1.32489
-1.34074
-1.35569
-1.36856
-1.37652
-1.37138
-1.34104
-1.34
-1.4518
-1.60848
-1.72338
-1.84055
-1.94995
-2.03012
-2.4294
-5.6198
-11.3329
-14.3161
-24.9165
-33.8249
-27.1098
-16.9485
-13.5599
-11.8574
-9.08952
-1.40759
-1.38598
-1.3678
-1.35465
-1.34448
-1.33466
-1.32656
-1.3209
-1.31768
-1.31688
-1.31838
-1.32201
-1.32755
-1.33483
-1.34367
-1.35389
-1.36533
-1.37784
-1.39131
-1.40556
-1.4204
-1.43547
-1.45036
-1.46452
-1.47726
-1.48716
-1.49128
-1.48733
-1.49587
-1.53969
-1.59323
-1.63503
-1.6669
-1.6834
-1.67676
-1.71665
-1.99509
-2.56497
-4.9153
-10.2255
-17.8881
-26.486
-33.4994
-42.9559
-47.1808
-44.3033
-1.4617
-1.45349
-1.44211
-1.43198
-1.42399
-1.41665
-1.4106
-1.40646
-1.40443
-1.40458
-1.40688
-1.41121
-1.41741
-1.4253
-1.4347
-1.44543
-1.4573
-1.47018
-1.48392
-1.49838
-1.51338
-1.52865
-1.54388
-1.55881
-1.57319
-1.58679
-1.59925
-1.61171
-1.63195
-1.6675
-1.71064
-1.75259
-1.79014
-1.81989
-1.83331
-1.81365
-1.74993
-1.82962
-2.22752
-2.99253
-3.23993
-5.38393
-9.959
-15.5478
-22.0948
-28.6486
-1.53453
-1.52686
-1.51717
-1.50786
-1.5002
-1.49372
-1.48865
-1.48536
-1.48402
-1.4847
-1.4874
-1.49206
-1.49856
-1.50674
-1.51643
-1.52746
-1.53966
-1.55289
-1.56702
-1.58191
-1.59741
-1.61335
-1.62953
-1.64581
-1.66217
-1.67879
-1.69609
-1.71544
-1.74072
-1.77494
-1.8149
-1.8559
-1.89558
-1.9324
-1.96454
-1.9907
-2.00167
-2.04748
-2.14317
-2.24189
-2.2331
-2.42441
-3.24426
-3.67235
-4.22039
-6.27174
-1.6112
-1.60284
-1.59342
-1.58454
-1.57743
-1.57184
-1.56776
-1.56538
-1.56482
-1.56616
-1.5694
-1.5745
-1.58138
-1.58991
-1.59994
-1.61132
-1.62388
-1.6375
-1.65205
-1.66745
-1.68357
-1.7003
-1.71755
-1.73526
-1.7535
-1.77256
-1.79299
-1.81588
-1.84318
-1.87613
-1.91314
-1.95191
-1.99123
-2.03074
-2.07116
-2.11532
-2.16842
-2.24192
-2.34223
-2.44827
-2.48845
-2.5172
-2.67808
-2.75037
-2.86489
-3.27402
-1.68923
-1.68001
-1.67078
-1.66258
-1.65627
-1.65162
-1.64853
-1.64708
-1.64734
-1.64938
-1.65322
-1.65884
-1.66616
-1.67509
-1.68549
-1.69724
-1.71018
-1.72421
-1.73923
-1.75516
-1.77193
-1.78949
-1.80779
-1.82685
-1.84677
-1.86784
-1.89056
-1.91568
-1.94423
-1.97672
-2.01248
-2.05051
-2.09036
-2.13225
-2.1774
-2.22857
-2.28995
-2.36835
-2.46662
-2.57341
-2.66033
-2.74616
-2.88191
-2.99113
-3.05529
-3.17668
-1.76793
-1.75835
-1.74958
-1.74222
-1.73676
-1.73299
-1.73078
-1.73015
-1.73116
-1.73387
-1.73828
-1.7444
-1.75215
-1.76147
-1.77224
-1.78434
-1.79766
-1.8121
-1.82758
-1.84405
-1.86146
-1.87979
-1.89907
-1.91933
-1.94067
-1.96335
-1.98777
-2.01445
-2.04398
-2.07666
-2.11231
-2.15059
-2.19148
-2.23547
-2.28375
-2.3383
-2.40178
-2.47776
-2.56743
-2.66533
-2.76276
-2.86959
-3.00204
-3.13009
-3.24563
-3.39692
-1.84718
-1.83785
-1.82993
-1.82349
-1.81884
-1.81583
-1.81437
-1.81445
-1.81612
-1.81941
-1.82435
-1.83092
-1.83907
-1.84875
-1.85986
-1.87229
-1.88596
-1.90079
-1.91671
-1.93369
-1.9517
-1.97076
-1.99089
-2.01216
-2.03468
-2.05863
-2.08434
-2.11217
-2.14251
-2.17562
-2.21155
-2.25034
-2.29219
-2.33769
-2.38789
-2.44429
-2.50861
-2.5827
-2.66694
-2.75905
-2.8563
-2.9629
-3.08438
-3.21023
-3.33954
-3.48607
-1.92711
-1.91858
-1.91171
-1.90622
-1.90231
-1.89996
-1.89911
-1.89979
-1.90202
-1.90583
-1.91123
-1.9182
-1.92671
-1.93671
-1.94812
-1.96086
-1.97485
-1.99002
-2.00635
-2.0238
-2.04236
-2.06205
-2.08292
-2.10503
-2.12849
-2.15346
-2.18017
-2.20891
-2.23995
-2.27353
-2.30986
-2.34914
-2.3917
-2.43813
-2.48933
-2.54648
-2.61078
-2.68332
-2.7644
-2.85315
-2.94864
-3.05257
-3.16704
-3.28872
-3.41788
-3.55917
-2.00784
-2.00047
-1.99469
-1.99008
-1.98683
-1.98505
-1.98473
-1.98592
-1.98863
-1.99288
-1.99868
-2.006
-2.01483
-2.02511
-2.0368
-2.04981
-2.06408
-2.07957
-2.09625
-2.1141
-2.13314
-2.15338
-2.17486
-2.19766
-2.22187
-2.24763
-2.27514
-2.3046
-2.33625
-2.37031
-2.40704
-2.44673
-2.48977
-2.53669
-2.58829
-2.64547
-2.70917
-2.78015
-2.85875
-2.94477
-3.03803
-3.13937
-3.24975
-3.36815
-3.49508
-3.63297
-2.08937
-2.08332
-2.07851
-2.07467
-2.07202
-2.07073
-2.07088
-2.0725
-2.07563
-2.08027
-2.08641
-2.09405
-2.10315
-2.11369
-2.12561
-2.13887
-2.1534
-2.16917
-2.18615
-2.20435
-2.22379
-2.24448
-2.26647
-2.28982
-2.31463
-2.34101
-2.36913
-2.39916
-2.43132
-2.4658
-2.50288
-2.54288
-2.5862
-2.63334
-2.68495
-2.7418
-2.80462
-2.87404
-2.95044
-3.03395
-3.12472
-3.22336
-3.33046
-3.44584
-3.57021
-3.70499
-2.17156
-2.1668
-2.16278
-2.1596
-2.15748
-2.15664
-2.15719
-2.15921
-2.1627
-2.16768
-2.17412
-2.18203
-2.19137
-2.20213
-2.21428
-2.22775
-2.24252
-2.25853
-2.27579
-2.29429
-2.31406
-2.33512
-2.35753
-2.38133
-2.40661
-2.43346
-2.46204
-2.49252
-2.52506
-2.55987
-2.59721
-2.63742
-2.68087
-2.72803
-2.77945
-2.83577
-2.89762
-2.96556
-3.04
-3.12123
-3.20956
-3.30554
-3.40968
-3.52215
-3.64384
-3.77579
-2.25416
-2.25056
-2.24717
-2.24453
-2.24287
-2.24243
-2.24336
-2.24572
-2.24954
-2.25481
-2.26153
-2.26968
-2.27924
-2.2902
-2.30253
-2.3162
-2.33117
-2.34741
-2.3649
-2.38366
-2.4037
-2.42507
-2.44781
-2.47196
-2.49761
-2.52484
-2.55378
-2.58457
-2.6174
-2.65245
-2.68997
-2.73029
-2.77376
-2.8208
-2.8719
-2.92759
-2.98845
-3.05501
-3.12769
-3.2069
-3.29302
-3.38659
-3.48815
-3.59802
-3.71721
-3.8467
-2.33691
-2.33427
-2.33136
-2.32918
-2.32793
-2.32785
-2.32912
-2.3318
-2.33591
-2.34146
-2.34842
-2.35679
-2.36655
-2.37769
-2.3902
-2.40404
-2.41919
-2.43562
-2.45332
-2.47229
-2.49255
-2.51415
-2.53714
-2.56156
-2.58748
-2.61499
-2.6442
-2.67524
-2.70828
-2.7435
-2.78114
-2.8215
-2.86491
-2.91177
-2.96248
-3.01754
-3.07745
-3.14274
-3.21386
-3.29128
-3.37547
-3.46697
-3.56637
-3.67408
-3.79124
-3.91885
-2.41953
-2.41764
-2.41514
-2.41334
-2.41246
-2.41273
-2.41431
-2.41729
-2.42167
-2.42746
-2.43466
-2.44324
-2.45319
-2.4645
-2.47717
-2.49116
-2.50647
-2.52307
-2.54093
-2.56008
-2.58052
-2.60229
-2.62545
-2.65005
-2.67616
-2.70386
-2.73325
-2.76447
-2.79765
-2.83299
-2.8707
-2.91107
-2.95439
-3.00103
-3.05138
-3.10586
-3.16495
-3.22914
-3.29895
-3.37486
-3.45742
-3.54722
-3.64486
-3.75084
-3.86641
-3.99263
-2.50177
-2.50043
-2.49828
-2.49685
-2.49631
-2.49691
-2.4988
-2.50205
-2.50669
-2.51272
-2.52013
-2.52891
-2.53905
-2.55053
-2.56335
-2.57749
-2.59293
-2.60967
-2.62768
-2.64697
-2.66755
-2.68945
-2.71273
-2.73744
-2.76366
-2.79147
-2.82097
-2.85228
-2.88556
-2.92096
-2.95871
-2.99905
-3.04227
-3.08872
-3.13874
-3.19274
-3.25116
-3.3145
-3.38328
-3.45804
-3.53935
-3.62786
-3.72419
-3.82889
-3.9433
-4.06852
-2.58339
-2.58247
-2.58064
-2.57955
-2.57934
-2.58026
-2.58244
-2.58597
-2.59085
-2.59711
-2.60473
-2.61371
-2.62403
-2.63567
-2.64864
-2.66292
-2.67849
-2.69535
-2.71349
-2.7329
-2.75359
-2.7756
-2.79896
-2.82374
-2.85002
-2.87788
-2.90743
-2.93879
-2.9721
-3.00753
-3.04528
-3.08558
-3.12871
-3.17498
-3.22473
-3.27835
-3.33627
-3.39898
-3.46703
-3.54098
-3.62146
-3.70912
-3.80463
-3.90855
-4.02228
-4.14701
-2.66421
-2.66359
-2.66208
-2.66131
-2.66143
-2.66266
-2.66514
-2.66893
-2.67405
-2.68053
-2.68836
-2.69752
-2.70801
-2.71981
-2.73293
-2.74733
-2.76303
-2.78001
-2.79825
-2.81777
-2.83856
-2.86065
-2.88409
-2.90893
-2.93524
-2.96313
-2.99269
-3.02406
-3.05738
-3.09282
-3.13056
-3.17084
-3.2139
-3.26005
-3.30961
-3.36297
-3.42054
-3.48284
-3.55041
-3.62388
-3.70388
-3.79111
-3.88626
-3.98989
-4.10345
-4.22817
-2.74411
-2.74372
-2.74251
-2.74205
-2.74248
-2.74402
-2.74678
-2.75083
-2.75619
-2.76288
-2.7709
-2.78024
-2.7909
-2.80286
-2.81611
-2.83064
-2.84645
-2.86353
-2.88187
-2.90148
-2.92236
-2.94453
-2.96804
-2.99293
-3.01928
-3.04719
-3.07678
-3.10816
-3.14149
-3.17695
-3.21471
-3.25499
-3.29805
-3.34416
-3.39365
-3.44689
-3.50431
-3.56642
-3.6338
-3.70708
-3.78696
-3.87414
-3.96933
-4.0731
-4.18692
-4.31205
-2.82301
-2.82279
-2.82187
-2.8217
-2.82244
-2.82427
-2.82731
-2.83161
-2.83721
-2.8441
-2.85231
-2.86182
-2.87263
-2.88473
-2.89811
-2.91276
-2.92868
-2.94585
-2.96428
-2.98397
-3.00493
-3.02717
-3.05074
-3.07569
-3.10209
-3.13004
-3.15966
-3.19108
-3.22446
-3.25996
-3.29778
-3.33814
-3.38128
-3.42747
-3.47703
-3.53034
-3.58784
-3.65004
-3.71753
-3.79097
-3.87109
-3.9586
-4.05423
-4.15854
-4.27298
-4.39885
-2.90088
-2.90079
-2.90014
-2.90026
-2.90128
-2.9034
-2.9067
-2.91125
-2.91706
-2.92416
-2.93255
-2.94222
-2.95318
-2.96541
-2.97891
-2.99367
-3.00968
-3.02694
-3.04545
-3.06521
-3.08623
-3.10854
-3.13217
-3.15717
-3.18364
-3.21165
-3.24133
-3.27282
-3.30628
-3.34188
-3.37983
-3.42034
-3.46366
-3.51006
-3.55986
-3.61345
-3.67126
-3.73383
-3.80176
-3.87573
-3.95647
-4.04472
-4.14118
-4.24639
-4.36179
-4.48864
-2.97773
-2.97773
-2.97734
-2.97773
-2.97902
-2.98141
-2.98497
-2.98975
-2.99578
-3.00307
-3.01163
-3.02146
-3.03256
-3.04491
-3.05852
-3.07338
-3.08948
-3.10682
-3.12539
-3.14521
-3.16629
-3.18865
-3.21234
-3.23742
-3.26395
-3.29204
-3.32181
-3.35341
-3.38699
-3.42275
-3.46089
-3.50163
-3.54523
-3.59196
-3.64216
-3.69622
-3.75458
-3.8178
-3.88649
-3.96133
-4.04305
-4.1324
-4.23004
-4.33649
-4.45311
-4.5811
-3.05356
-3.05364
-3.0535
-3.05413
-3.05569
-3.05833
-3.06213
-3.06713
-3.07337
-3.08084
-3.08957
-3.09955
-3.11078
-3.12326
-3.13697
-3.15193
-3.16811
-3.18552
-3.20415
-3.22403
-3.24516
-3.26758
-3.29133
-3.31647
-3.34308
-3.37127
-3.40116
-3.4329
-3.46666
-3.50262
-3.54101
-3.58206
-3.62603
-3.67322
-3.72396
-3.77865
-3.83778
-3.90188
-3.97159
-4.04759
-4.13061
-4.22135
-4.32046
-4.42837
-4.54636
-4.67551
-3.1284
-3.12855
-3.12864
-3.1295
-3.13131
-3.13419
-3.13822
-3.14344
-3.14987
-3.15752
-3.16641
-3.17653
-3.18789
-3.20048
-3.2143
-3.22934
-3.2456
-3.26308
-3.28178
-3.30171
-3.3229
-3.34538
-3.36919
-3.39441
-3.42112
-3.44943
-3.47946
-3.51137
-3.54534
-3.58157
-3.62028
-3.66171
-3.70615
-3.75389
-3.8053
-3.86078
-3.92083
-3.98601
-4.05696
-4.13435
-4.21888
-4.31123
-4.41197
-4.52146
-4.64081
-4.771
-3.20229
-3.20248
-3.20279
-3.20388
-3.20591
-3.20902
-3.21327
-3.21869
-3.22531
-3.23314
-3.24218
-3.25244
-3.26391
-3.27661
-3.29052
-3.30565
-3.32199
-3.33953
-3.3583
-3.37829
-3.39954
-3.42209
-3.44599
-3.4713
-3.49812
-3.52657
-3.55677
-3.5889
-3.62313
-3.65967
-3.69876
-3.74065
-3.78564
-3.83404
-3.88623
-3.94263
-4.00376
-4.07018
-4.14252
-4.22146
-4.30765
-4.40172
-4.50415
-4.6152
-4.73578
-4.86671
-3.27524
-3.27546
-3.27597
-3.27727
-3.27953
-3.28286
-3.28731
-3.29293
-3.29972
-3.30771
-3.31689
-3.32728
-3.33887
-3.35167
-3.36567
-3.38088
-3.39729
-3.41491
-3.43374
-3.45381
-3.47513
-3.49776
-3.52175
-3.54717
-3.57413
-3.60275
-3.63316
-3.66553
-3.70006
-3.73697
-3.77651
-3.81893
-3.86455
-3.9137
-3.96678
-4.02422
-4.08654
-4.15432
-4.22818
-4.30876
-4.39669
-4.49249
-4.59657
-4.70904
-4.83059
-4.96183
-3.34726
-3.34751
-3.3482
-3.3497
-3.35217
-3.3557
-3.36035
-3.36615
-3.37311
-3.38124
-3.39056
-3.40106
-3.41276
-3.42566
-3.43975
-3.45503
-3.47152
-3.4892
-3.50811
-3.52825
-3.54966
-3.57239
-3.59648
-3.62204
-3.64916
-3.67797
-3.70861
-3.74127
-3.77616
-3.81349
-3.85352
-3.89655
-3.94288
-3.99287
-4.04692
-4.1055
-4.16911
-4.23834
-4.31379
-4.39606
-4.48571
-4.58318
-4.68875
-4.80238
-4.92452
-5.0555
-3.41836
-3.41864
-3.4195
-3.42118
-3.42385
-3.42757
-3.4324
-3.43836
-3.44548
-3.45375
-3.46319
-3.4738
-3.4856
-3.49858
-3.51274
-3.5281
-3.54466
-3.56242
-3.5814
-3.60162
-3.62313
-3.64596
-3.67018
-3.69589
-3.72319
-3.75221
-3.78312
-3.8161
-3.85138
-3.88917
-3.92976
-3.97345
-4.02056
-4.07147
-4.12657
-4.18635
-4.25132
-4.32205
-4.3991
-4.48303
-4.57431
-4.67329
-4.78008
-4.8945
-5.01672
-5.14679
-3.48856
-3.48886
-3.48987
-3.49172
-3.49456
-3.49847
-3.50346
-3.50958
-3.51683
-3.52522
-3.53477
-3.54548
-3.55736
-3.57042
-3.58465
-3.60008
-3.6167
-3.63453
-3.65358
-3.67389
-3.69549
-3.71843
-3.7428
-3.76867
-3.79616
-3.82542
-3.85662
-3.88996
-3.92565
-3.96395
-4.00514
-4.04954
-4.09748
-4.14935
-4.20557
-4.26659
-4.33294
-4.40515
-4.48376
-4.56924
-4.66197
-4.76217
-4.86982
-4.98455
-5.10624
-5.23465
-3.55785
-3.55817
-3.55931
-3.56132
-3.56432
-3.56839
-3.57353
-3.57978
-3.58715
-3.59566
-3.6053
-3.61609
-3.62805
-3.64117
-3.65546
-3.67094
-3.68762
-3.70551
-3.72464
-3.74503
-3.76672
-3.78978
-3.81428
-3.84032
-3.86803
-3.89754
-3.92905
-3.96275
-3.99889
-4.03772
-4.07954
-4.12468
-4.17348
-4.22634
-4.28368
-4.34595
-4.41366
-4.48729
-4.56732
-4.65416
-4.74807
-4.84912
-4.95714
-5.07161
-5.19208
-5.31803
-3.62622
-3.62658
-3.62783
-3.62998
-3.63313
-3.63733
-3.64261
-3.64898
-3.65646
-3.66505
-3.67477
-3.68564
-3.69765
-3.71082
-3.72516
-3.74068
-3.7574
-3.77535
-3.79453
-3.81499
-3.83678
-3.85995
-3.88459
-3.9108
-3.93871
-3.96848
-4.0003
-4.03438
-4.07097
-4.11034
-4.1528
-4.19869
-4.24836
-4.30221
-4.36066
-4.42413
-4.49311
-4.56803
-4.6493
-4.73722
-4.83194
-4.9334
-5.04124
-5.15479
-5.27334
-5.39607
-3.69369
-3.69408
-3.69543
-3.6977
-3.70098
-3.70531
-3.7107
-3.71717
-3.72473
-3.7334
-3.74319
-3.7541
-3.76615
-3.77936
-3.79373
-3.80928
-3.82603
-3.84401
-3.86324
-3.88376
-3.90562
-3.92889
-3.95366
-3.98003
-4.00815
-4.03817
-4.07029
-4.10474
-4.14178
-4.18168
-4.22478
-4.2714
-4.32192
-4.37672
-4.43621
-4.5008
-4.57091
-4.64693
-4.72918
-4.81784
-4.91295
-5.01429
-5.12137
-5.23339
-5.34936
-5.4682
-3.76026
-3.76067
-3.76211
-3.76448
-3.76788
-3.77231
-3.7778
-3.78436
-3.79199
-3.80072
-3.81055
-3.82149
-3.83356
-3.84678
-3.86116
-3.87672
-3.89348
-3.91147
-3.93073
-3.95129
-3.97321
-3.99657
-4.02144
-4.04796
-4.07626
-4.10651
-4.13892
-4.17372
-4.21118
-4.25159
-4.29529
-4.34262
-4.39393
-4.44962
-4.51006
-4.57563
-4.64669
-4.72356
-4.80646
-4.89548
-4.99051
-5.09122
-5.19699
-5.30691
-5.4198
-5.53433
-3.82592
-3.82637
-3.82788
-3.83035
-3.83383
-3.83836
-3.84392
-3.85054
-3.85823
-3.86699
-3.87684
-3.8878
-3.89987
-3.91308
-3.92745
-3.94299
-3.95974
-3.97773
-3.99699
-4.01756
-4.03952
-4.06293
-4.08789
-4.11452
-4.14298
-4.17343
-4.20609
-4.24121
-4.27906
-4.31994
-4.36419
-4.41215
-4.46419
-4.52066
-4.58192
-4.64829
-4.72008
-4.79751
-4.88072
-4.96968
-5.06417
-5.16377
-5.26777
-5.3752
-5.48474
-5.59486
-3.89068
-3.89117
-3.89275
-3.89529
-3.89886
-3.90345
-3.90908
-3.91574
-3.92346
-3.93224
-3.94209
-3.95303
-3.96509
-3.97827
-3.9926
-4.0081
-4.02481
-4.04276
-4.062
-4.08256
-4.10452
-4.12795
-4.15296
-4.17967
-4.20824
-4.23885
-4.27172
-4.30711
-4.34529
-4.38658
-4.43131
-4.47983
-4.53249
-4.58961
-4.65152
-4.71849
-4.79074
-4.86842
-4.95157
-5.04007
-5.13361
-5.2317
-5.33361
-5.43837
-5.54457
-5.65057
-3.95455
-3.95508
-3.95671
-3.95932
-3.96295
-3.9676
-3.97327
-3.97996
-3.98768
-3.99646
-4.00629
-4.0172
-4.02921
-4.04233
-4.0566
-4.07204
-4.08868
-4.10657
-4.12574
-4.14625
-4.16818
-4.19159
-4.21661
-4.24335
-4.27199
-4.30271
-4.33573
-4.37132
-4.40977
-4.45139
-4.49652
-4.54549
-4.59864
-4.65626
-4.71863
-4.78596
-4.8584
-4.93601
-5.01874
-5.1064
-5.19864
-5.29494
-5.39463
-5.49677
-5.59996
-5.7025
-4.01754
-4.01811
-4.01979
-4.02246
-4.02614
-4.03082
-4.03651
-4.04321
-4.05092
-4.05967
-4.06946
-4.08031
-4.09225
-4.10529
-4.11947
-4.13481
-4.15135
-4.16914
-4.18821
-4.20864
-4.23048
-4.25383
-4.2788
-4.30553
-4.33418
-4.36494
-4.39805
-4.43377
-4.4724
-4.51426
-4.55968
-4.60898
-4.66247
-4.72041
-4.78303
-4.85047
-4.92281
-5.00003
-5.08202
-5.16852
-5.2592
-5.35359
-5.45109
-5.5509
-5.65166
-5.75168
-4.07965
-4.08027
-4.082
-4.0847
-4.08842
-4.09313
-4.09882
-4.1055
-4.11318
-4.12188
-4.1316
-4.14237
-4.15421
-4.16715
-4.1812
-4.19642
-4.21283
-4.23047
-4.24941
-4.2697
-4.29142
-4.31465
-4.33952
-4.36617
-4.39476
-4.42549
-4.45861
-4.49438
-4.5331
-4.57509
-4.62067
-4.67016
-4.72383
-4.7819
-4.84454
-4.91184
-4.9838
-5.06033
-5.14127
-5.22637
-5.31533
-5.40779
-5.50331
-5.60125
-5.70035
-5.79897
-4.14091
-4.14158
-4.14334
-4.14608
-4.14982
-4.15453
-4.1602
-4.16685
-4.17448
-4.18311
-4.19274
-4.2034
-4.21512
-4.22792
-4.24182
-4.25687
-4.27311
-4.29058
-4.30933
-4.32944
-4.35098
-4.37404