/*--------------------------------*- C++ -*----------------------------------*\
  =========                 |
  \\      /  F ield         | OpenFOAM: The Open Source CFD Toolbox
   \\    /   O peration     | Website:  https://openfoam.org
    \\  /    A nd           | Version:  7
     \\/     M anipulation  |
\*---------------------------------------------------------------------------*/
FoamFile
{
    version     2.0;
    format      ascii;
    class       volScalarField;
    location    "0.4";
    object      p_rgh;
}
// * * * * * * * * * * * * * * * * * * * * * * * * * * * * * * * * * * * * * //

dimensions      [1 -1 -2 0 0 0 0];

internalField   nonuniform List<scalar> 
9072
(
908.545
907.878
910.961
916.261
922.411
928.318
933.538
938.014
941.776
944.927
947.588
949.878
951.9
953.746
955.492
957.204
958.936
960.74
962.659
964.739
967.027
969.574
972.439
975.69
979.412
983.708
988.701
994.547
1001.43
1009.6
1019.37
1031.09
1045.08
1061.69
1081.31
1104.25
1130.56
1159.62
1189.92
1218.89
1243.56
1260.55
1266.55
1268.92
1284.36
1307.45
908.459
907.295
909.662
914.286
919.888
925.341
930.317
934.666
938.382
941.534
944.222
946.547
948.606
950.486
952.262
953.998
955.753
957.577
959.52
961.631
963.959
966.56
969.497
972.845
976.691
981.145
986.337
992.429
999.614
1008.13
1018.26
1030.37
1044.87
1062.12
1082.56
1106.51
1134.03
1164.61
1196.7
1227.44
1253.24
1269.84
1271.17
1268.39
1273.93
1300.72
907.694
906.751
908.803
912.666
917.448
922.295
926.831
930.88
934.4
937.428
940.038
942.314
944.339
946.193
947.948
949.667
951.411
953.231
955.181
957.312
959.681
962.345
965.375
968.849
972.863
977.532
982.992
989.413
996.996
1005.98
1016.66
1029.38
1044.56
1062.61
1083.9
1108.74
1137.15
1168.6
1201.56
1233.15
1259.33
1277.92
1274.87
1266.47
1266.32
1296.24
906.655
906.24
908.18
911.47
915.57
919.82
923.866
927.534
930.766
933.578
936.023
938.17
940.091
941.858
943.539
945.198
946.89
948.674
950.602
952.731
955.119
957.83
960.938
964.527
968.697
973.57
979.287
986.022
993.981
1003.41
1014.59
1027.86
1043.62
1062.28
1084.17
1109.54
1138.36
1170.01
1203
1234.6
1260.72
1278.97
1275.78
1267.74
1261.57
1296.23
905.618
905.803
907.693
910.587
914.155
917.879
921.46
924.736
927.649
930.202
932.437
934.409
936.183
937.825
939.398
940.963
942.577
944.297
946.179
948.281
950.665
953.398
956.558
960.233
964.528
969.565
975.493
982.488
990.755
1000.54
1012.12
1025.82
1042.01
1061.07
1083.3
1108.88
1137.7
1169.12
1201.69
1232.94
1259.1
1277.46
1280.71
1270.09
1266.19
1302.26
904.537
905.359
907.23
909.83
912.966
916.232
919.382
922.279
924.868
927.15
929.155
930.933
932.54
934.036
935.482
936.935
938.454
940.095
941.914
943.972
946.333
949.068
952.256
955.99
960.376
965.541
971.634
978.831
987.34
997.4
1009.28
1023.29
1039.76
1059.05
1081.41
1106.95
1135.51
1166.45
1198.4
1229.17
1255.52
1274.69
1284.7
1274.27
1277.63
1314.99
903.322
904.748
906.667
909.062
911.844
914.709
917.463
920
922.273
924.281
926.052
927.627
929.057
930.398
931.707
933.04
934.454
936.005
937.752
939.755
942.08
944.801
947.999
951.768
956.218
961.476
967.692
975.042
983.729
993.987
1006.08
1020.28
1036.91
1056.27
1078.58
1103.9
1132.02
1162.3
1193.51
1223.74
1250.28
1270.62
1283
1287.49
1293.93
1332.49
901.959
903.905
905.932
908.196
910.691
913.203
915.598
917.796
919.765
921.506
923.043
924.414
925.665
926.847
928.015
929.223
930.528
931.984
933.652
935.592
937.872
940.567
943.759
947.545
952.034
957.355
963.656
971.111
979.918
990.304
1002.51
1016.81
1033.48
1052.78
1074.9
1099.84
1127.37
1156.88
1187.26
1216.88
1243.5
1264.97
1279.77
1290.48
1305.87
1351.71
900.461
902.835
905
907.181
909.438
911.641
913.709
915.592
917.273
918.756
920.065
921.235
922.308
923.333
924.359
925.441
926.634
927.993
929.578
931.451
933.679
936.338
939.512
943.298
947.806
953.162
959.514
967.032
975.907
986.355
998.61
1012.91
1029.51
1048.64
1070.43
1094.87
1121.7
1150.35
1179.83
1208.73
1235.25
1257.63
1274.8
1290.06
1315.57
1370.04
898.831
901.561
903.871
905.99
908.043
909.971
911.741
913.333
914.743
915.98
917.069
918.044
918.942
919.81
920.697
921.654
922.735
923.996
925.496
927.297
929.468
932.085
935.231
939.003
943.511
948.879
955.251
962.794
971.69
982.144
994.374
1008.59
1025.03
1043.89
1065.27
1089.11
1115.15
1142.85
1171.33
1199.4
1225.58
1248.5
1267.7
1286.97
1321.9
1385.1
897.068
900.105
902.549
904.612
906.481
908.16
909.659
910.981
912.136
913.139
914.017
914.801
915.53
916.245
916.994
917.826
918.797
919.96
921.374
923.102
925.212
927.78
930.89
934.637
939.128
944.487
950.855
958.388
967.265
977.675
989.821
1003.89
1020.1
1038.6
1059.48
1082.64
1107.82
1134.51
1161.9
1188.96
1214.49
1237.41
1257.96
1280.19
1323.28
1394.43
895.175
898.485
901.044
903.047
904.743
906.193
907.44
908.512
909.427
910.208
910.883
911.483
912.045
912.61
913.223
913.934
914.794
915.859
917.187
918.84
920.886
923.401
926.468
930.18
934.642
939.975
946.314
953.81
962.632
972.956
984.967
998.837
1014.74
1032.83
1053.14
1075.56
1099.83
1125.43
1151.63
1177.49
1201.97
1224.23
1245.04
1268.44
1317.99
1394.93
893.154
896.714
899.365
901.299
902.829
904.064
905.077
905.914
906.603
907.172
907.651
908.071
908.47
908.887
909.366
909.955
910.705
911.672
912.913
914.49
916.47
918.928
921.946
925.615
930.038
935.33
941.621
949.056
957.793
967.995
979.83
993.451
1009.01
1026.63
1046.32
1067.98
1091.29
1115.75
1140.65
1165.09
1188.08
1208.85
1228.49
1250.42
1304.03
1381.75
891.007
894.807
897.524
899.375
900.743
901.773
902.565
903.18
903.655
904.02
904.307
904.551
904.788
905.056
905.399
905.866
906.505
907.373
908.525
910.023
911.934
914.331
917.295
920.914
925.288
930.527
936.755
944.11
952.739
962.793
974.421
987.758
1002.93
1020.05
1039.12
1059.97
1082.31
1105.61
1129.12
1151.93
1172.99
1191.38
1208.04
1224.94
1279.27
1346.93
888.741
892.78
895.535
897.289
898.495
899.328
899.909
900.312
900.58
900.748
900.848
900.917
900.991
901.11
901.317
901.658
902.185
902.95
904.011
905.428
907.266
909.599
912.504
916.069
920.386
925.562
931.715
938.976
947.48
957.364
968.762
981.792
996.562
1013.16
1031.58
1051.65
1073.02
1095.13
1117.21
1138.21
1156.91
1171.97
1183.49
1190.95
1239.92
1275.33
886.368
890.624
893.412
895.062
896.108
896.756
897.138
897.34
897.413
897.394
897.318
897.22
897.14
897.117
897.193
897.417
897.838
898.507
899.482
900.822
902.591
904.862
907.709
911.216
915.471
920.575
926.641
933.789
942.146
951.832
962.965
975.647
989.974
1006.02
1023.76
1043.01
1063.39
1084.29
1104.84
1123.84
1139.73
1150.44
1154.29
1147.65
1171.89
1145.14
24.7768
24.7712
24.7673
24.7621
24.758
24.7559
24.7561
24.7585
24.7623
24.767
24.7715
24.7749
24.7765
24.7753
24.7706
24.7618
24.7483
24.7298
24.7062
24.6778
24.645
24.6084
24.5687
24.527
24.4841
24.441
24.3985
24.3576
24.3188
24.2829
24.2505
24.2219
24.1975
24.1777
24.1624
24.1518
24.1454
24.1431
24.7775
24.7725
24.7697
24.7643
24.7595
24.7565
24.7557
24.7571
24.7601
24.764
24.7678
24.7707
24.7718
24.7703
24.7654
24.7565
24.7431
24.7248
24.7017
24.6737
24.6415
24.6055
24.5665
24.5253
24.483
24.4402
24.3983
24.3576
24.3191
24.2834
24.2511
24.2226
24.1982
24.1783
24.1629
24.1521
24.1455
24.1435
24.7784
24.7733
24.7709
24.7655
24.7603
24.7567
24.7552
24.7558
24.758
24.7611
24.7643
24.7667
24.7673
24.7655
24.7605
24.7515
24.7382
24.7203
24.6975
24.6701
24.6385
24.6031
24.5647
24.5241
24.4821
24.4398
24.3979
24.3574
24.319
24.2833
24.251
24.2224
24.198
24.178
24.1624
24.1515
24.1446
24.143
24.7796
24.7734
24.771
24.7657
24.7602
24.7562
24.7542
24.7543
24.7559
24.7585
24.7612
24.7632
24.7636
24.7615
24.7563
24.7474
24.7342
24.7165
24.6942
24.6672
24.636
24.6011
24.5631
24.5228
24.4811
24.439
24.3971
24.3565
24.318
24.2822
24.2497
24.221
24.1964
24.1763
24.1607
24.1496
24.1425
24.1413
24.7811
24.7732
24.7702
24.7649
24.7592
24.7552
24.7529
24.7526
24.7539
24.7562
24.7586
24.7604
24.7606
24.7584
24.7532
24.7443
24.7313
24.7138
24.6917
24.6651
24.6342
24.5996
24.5618
24.5217
24.48
24.4377
24.3957
24.3549
24.3161
24.28
24.2472
24.2183
24.1935
24.1733
24.1576
24.1464
24.1394
24.1381
24.7825
24.7725
24.7689
24.7635
24.7577
24.7536
24.7513
24.7508
24.752
24.7542
24.7565
24.7583
24.7585
24.7562
24.7511
24.7422
24.7293
24.712
24.6901
24.6637
24.633
24.5985
24.5607
24.5205
24.4787
24.4362
24.3938
24.3526
24.3133
24.2768
24.2436
24.2143
24.1894
24.169
24.1532
24.1421
24.1353
24.134
24.7835
24.7713
24.7671
24.7614
24.7556
24.7516
24.7495
24.7491
24.7503
24.7526
24.7549
24.7568
24.757
24.7549
24.7499
24.741
24.7282
24.711
24.6892
24.6628
24.6322
24.5976
24.5598
24.5193
24.4772
24.4343
24.3915
24.3497
24.3099
24.2727
24.239
24.2094
24.1841
24.1636
24.1477
24.1366
24.1302
24.1291
24.7839
24.7693
24.7649
24.7586
24.753
24.7492
24.7475
24.7473
24.7487
24.7512
24.7537
24.7558
24.7562
24.7542
24.7493
24.7407
24.7279
24.7108
24.689
24.6626
24.6318
24.5971
24.559
24.5182
24.4756
24.4321
24.3887
24.3463
24.3058
24.2679
24.2336
24.2034
24.1777
24.1569
24.141
24.1299
24.1239
24.1231
24.7835
24.7664
24.7624
24.7553
24.7501
24.7465
24.7454
24.7454
24.7472
24.75
24.7528
24.7553
24.7559
24.7541
24.7495
24.741
24.7283
24.7113
24.6894
24.6629
24.6319
24.5969
24.5583
24.517
24.4738
24.4297
24.3856
24.3424
24.3011
24.2625
24.2274
24.1965
24.1704
24.1492
24.133
24.1219
24.1162
24.1158
24.7822
24.7622
24.7596
24.7514
24.7467
24.7436
24.7431
24.7436
24.7456
24.7489
24.7521
24.755
24.756
24.7546
24.7503
24.742
24.7294
24.7124
24.6906
24.6638
24.6325
24.597
24.5579
24.5159
24.4719
24.427
24.382
24.338
24.2958
24.2563
24.2205
24.1888
24.162
24.1403
24.1238
24.1126
24.1071
24.1071
24.7798
24.7566
24.7569
24.7471
24.7431
24.7405
24.7407
24.7417
24.7441
24.7478
24.7516
24.7549
24.7565
24.7555
24.7516
24.7437
24.7313
24.7144
24.6924
24.6655
24.6338
24.5977
24.5578
24.515
24.47
24.4241
24.3781
24.3331
24.2899
24.2495
24.2127
24.1803
24.1527
24.1303
24.1134
24.1019
24.0966
24.0969
24.7759
24.7493
24.7545
24.7424
24.7391
24.7373
24.7383
24.7399
24.7426
24.7468
24.7512
24.7551
24.7573
24.7569
24.7534
24.7459
24.7338
24.717
24.695
24.6678
24.6357
24.599
24.5583
24.5144
24.4683
24.4211
24.3739
24.3276
24.2833
24.2418
24.2041
24.1707
24.1423
24.1192
24.1015
24.0897
24.0845
24.0853
24.7704
24.7403
24.753
24.7379
24.7352
24.7342
24.7361
24.7382
24.7412
24.746
24.7511
24.7555
24.7584
24.7587
24.7558
24.7487
24.737
24.7204
24.6983
24.671
24.6384
24.601
24.5593
24.5143
24.4669
24.4182
24.3695
24.3217
24.276
24.2332
24.1943
24.16
24.1307
24.1067
24.0883
24.076
24.0709
24.0721
24.7626
24.73
24.7532
24.7344
24.7319
24.7316
24.7345
24.737
24.74
24.7454
24.7514
24.7564
24.76
24.7611
24.7588
24.7523
24.741
24.7246
24.7026
24.6749
24.6419
24.6036
24.561
24.5146
24.4658
24.4155
24.365
24.3155
24.268
24.2237
24.1834
24.1478
24.1174
24.0925
24.0734
24.0606
24.0556
24.0572
24.7528
24.7174
24.7547
24.7316
24.7289
24.7299
24.7339
24.7366
24.7393
24.7453
24.7522
24.7579
24.7622
24.7642
24.7626
24.7567
24.746
24.7298
24.7078
24.6799
24.6463
24.6072
24.5633
24.5155
24.4649
24.4128
24.3604
24.3089
24.2594
24.2132
24.1711
24.1341
24.1024
24.0765
24.0565
24.0435
24.0387
24.0407
24.7422
24.6927
24.7544
24.7238
24.7221
24.7276
24.7334
24.7363
24.7386
24.7451
24.7531
24.7594
24.7644
24.7672
24.7664
24.7612
24.7512
24.7355
24.7137
24.6856
24.6514
24.6114
24.5662
24.5168
24.4644
24.4102
24.3556
24.3019
24.2502
24.2018
24.1578
24.1188
24.0856
24.0584
24.0377
24.0245
24.0201
24.0225
882.465
886.963
889.827
891.348
892.167
892.555
892.66
892.579
892.375
892.091
891.767
891.438
891.145
890.928
890.831
890.9
891.183
891.731
892.598
893.84
895.521
897.708
900.473
903.892
908.045
913.02
918.92
925.855
933.933
943.247
953.884
965.926
979.456
994.533
1011.11
1028.98
1047.71
1066.59
1084.59
1100.19
1111.21
1114.22
1104.03
1071.22
1003.39
761.256
876.539
881.385
884.215
885.579
886.188
886.313
886.11
885.699
885.161
884.553
883.921
883.307
882.754
882.303
881.998
881.886
882.011
882.421
883.166
884.298
885.874
887.96
890.621
893.921
897.924
902.7
908.341
914.945
922.595
931.343
941.227
952.304
964.655
978.353
993.366
1009.46
1026.14
1042.6
1057.61
1069.47
1075.67
1072.46
1053.79
1009.01
925.386
810.475
870.123
875.087
877.8
879.078
879.581
879.514
879.045
878.329
877.475
876.552
875.616
874.715
873.895
873.2
872.678
872.373
872.331
872.596
873.211
874.223
875.689
877.669
880.227
883.414
887.268
891.84
897.212
903.486
910.725
918.923
928.037
938.093
949.207
961.53
975.108
989.743
1004.9
1019.69
1032.84
1042.62
1046.82
1042.51
1025.79
991.938
939.05
885.473
863.028
867.644
870.398
871.635
872.042
871.794
871.057
870.031
868.85
867.597
866.335
865.118
863.998
863.026
862.253
861.731
861.505
861.614
862.095
862.989
864.349
866.244
868.741
871.873
875.636
880.043
885.187
891.207
898.164
905.939
914.338
923.33
933.132
944.094
956.407
969.986
984.238
998.216
1010.58
1019.63
1023.57
1020.33
1007.31
981.909
942.583
894.349
855.456
859.007
861.581
862.414
862.644
862.237
861.258
859.955
858.491
856.944
855.377
853.852
852.433
851.181
850.154
849.417
849.013
848.975
849.33
850.102
851.344
853.149
855.607
858.737
862.443
866.667
871.549
877.382
884.3
891.941
899.72
907.484
915.691
925.194
936.411
949.593
963.933
978.227
990.951
1000.28
1004.99
1003.78
994.652
975.605
945.623
907.821
810.195
737.783
746.886
779.509
807.879
820.974
826.04
827.985
828.457
827.865
826.551
824.789
822.905
821.065
819.46
818.336
817.813
817.91
818.672
820.012
822.013
825.235
830.132
836.88
844.188
851.077
858.003
865.684
872.771
879.998
886.585
892.036
897.125
903.465
913.004
926.098
941.852
958.438
973.414
984.147
990.42
992.188
987.703
975.338
954.98
929.205
231.277
132.388
140.165
185.439
239.267
273.519
291.532
301.598
307.329
309.399
308.944
306.641
303.547
300.134
296.94
294.947
294.284
295.007
297.094
300.242
304.702
312.482
326.567
349.043
376.324
404.249
436.593
487.643
567.452
656.602
727.782
776.024
815.47
854.321
887.802
904.859
918.63
937.058
956.117
969.16
977.561
983.685
984.909
979.161
967.233
951.216
-0.551703
-0.172835
-0.170751
-0.303711
-0.317383
-0.314716
-0.318839
-0.322569
-0.32639
-0.331681
-0.33901
-0.348276
-0.35824
-0.36899
-0.380336
-0.391877
-0.403395
-0.414891
-0.426494
-0.438625
-0.451307
-0.463707
-0.474623
-0.484653
-0.496115
-0.510768
-0.525185
-0.528892
10.0087
46.1048
90.3471
130.426
168.549
231.517
397.268
681.048
901.497
931.579
946.716
956.272
963.373
974.717
983.282
984.148
979.983
973.179
-0.335399
-0.320035
-0.289062
-0.271733
-0.251297
-0.234257
-0.22269
-0.214874
-0.210003
-0.207828
-0.208115
-0.210597
-0.215069
-0.221374
-0.229379
-0.238951
-0.249963
-0.262293
-0.275825
-0.290447
-0.305955
-0.321947
-0.337798
-0.352751
-0.36562
-0.373573
-0.368436
-0.3381
-0.337058
-0.448857
-0.605539
-0.720437
-0.837606
-0.947004
-1.02717
0.548946
39.3684
380.997
925.819
978.003
969.119
975.842
985.999
989.387
991.089
993.857
-0.342048
-0.320436
-0.302252
-0.289103
-0.278933
-0.269112
-0.26102
-0.255352
-0.25214
-0.251343
-0.252848
-0.256476
-0.262027
-0.269314
-0.278153
-0.288374
-0.299814
-0.312329
-0.325787
-0.34004
-0.354869
-0.369943
-0.384823
-0.398987
-0.411722
-0.421626
-0.425739
-0.421785
-0.430325
-0.474145
-0.527685
-0.569486
-0.60136
-0.617852
-0.61122
-0.651101
-0.929562
5.35791
59.4426
126.413
289.238
769.448
1032.04
1022.59
1018.36
1021.24
-0.333563
-0.325348
-0.313974
-0.303843
-0.295846
-0.288508
-0.282459
-0.278317
-0.276291
-0.276445
-0.278746
-0.283079
-0.289284
-0.297182
-0.306588
-0.317314
-0.32919
-0.342064
-0.355803
-0.370264
-0.385256
-0.400521
-0.415754
-0.430673
-0.445055
-0.458652
-0.471112
-0.483577
-0.503814
-0.539365
-0.582498
-0.624445
-0.661999
-0.691752
-0.705166
-0.685514
-0.621798
-0.701566
-1.0975
-1.86189
-2.10234
41.1879
152.387
272.831
519.036
956.853
-0.343796
-0.336126
-0.326435
-0.317126
-0.309462
-0.302978
-0.297915
-0.294622
-0.293278
-0.293961
-0.296668
-0.301331
-0.307829
-0.316011
-0.325707
-0.33674
-0.348945
-0.362173
-0.376295
-0.391182
-0.406685
-0.422621
-0.4388
-0.455077
-0.471438
-0.488053
-0.505356
-0.524701
-0.549983
-0.584209
-0.624163
-0.665164
-0.704846
-0.74166
-0.773806
-0.799963
-0.81093
-0.856743
-0.952599
-1.05123
-1.04241
-1.22901
-2.04305
-2.46707
4.6723
67.3489
-0.357863
-0.349507
-0.340082
-0.331208
-0.324096
-0.3185
-0.314425
-0.312045
-0.311488
-0.312823
-0.316064
-0.321168
-0.328049
-0.33658
-0.346614
-0.357989
-0.370553
-0.384171
-0.398728
-0.414119
-0.430238
-0.446974
-0.464223
-0.481929
-0.500167
-0.519224
-0.53966
-0.56255
-0.589847
-0.622793
-0.659811
-0.698577
-0.737894
-0.777405
-0.817822
-0.86199
-0.915082
-0.988588
-1.08889
-1.19492
-1.23508
-1.26419
-1.42533
-1.49717
-1.61191
-2.01515
-0.373299
-0.364079
-0.354844
-0.346642
-0.340335
-0.33569
-0.332601
-0.331143
-0.331406
-0.333448
-0.337289
-0.342904
-0.350227
-0.359157
-0.369564
-0.381308
-0.394254
-0.408284
-0.423303
-0.439231
-0.456
-0.473556
-0.491863
-0.510921
-0.530839
-0.551907
-0.574625
-0.599751
-0.628295
-0.660786
-0.696546
-0.734581
-0.774424
-0.816315
-0.861472
-0.912641
-0.974014
-1.05242
-1.15067
-1.25745
-1.34436
-1.43019
-1.56593
-1.67518
-1.73936
-1.86078
-0.389402
-0.379818
-0.371052
-0.363687
-0.358225
-0.354458
-0.352247
-0.351618
-0.352633
-0.355339
-0.359755
-0.365866
-0.373623
-0.382941
-0.393712
-0.405814
-0.419133
-0.433571
-0.449053
-0.465518
-0.482928
-0.501266
-0.520543
-0.540797
-0.56214
-0.584821
-0.60924
-0.635924
-0.66545
-0.69813
-0.733778
-0.772062
-0.812947
-0.856939
-0.905216
-0.959768
-1.02325
-1.09923
-1.1889
-1.28677
-1.38417
-1.491
-1.62345
-1.75154
-1.8671
-2.01839
-0.406053
-0.396725
-0.388798
-0.382367
-0.377712
-0.374707
-0.37324
-0.37332
-0.37499
-0.378287
-0.383223
-0.389789
-0.397945
-0.407622
-0.418729
-0.431165
-0.444834
-0.459659
-0.475582
-0.492563
-0.510577
-0.529633
-0.549766
-0.571036
-0.593549
-0.617507
-0.643213
-0.671045
-0.701385
-0.734489
-0.770423
-0.809213
-0.851063
-0.89656
-0.946766
-1.00316
-1.06749
-1.14157
-1.22582
-1.31793
-1.41514
-1.52171
-1.6432
-1.76908
-1.89841
-2.04494
-0.423387
-0.414856
-0.407985
-0.402497
-0.398584
-0.396232
-0.395387
-0.396065
-0.398297
-0.402107
-0.407503
-0.414473
-0.422985
-0.432985
-0.444397
-0.457136
-0.471123
-0.486298
-0.502624
-0.520074
-0.538637
-0.558328
-0.579196
-0.601308
-0.624767
-0.649736
-0.676449
-0.705183
-0.736221
-0.769807
-0.806135
-0.845415
-0.887977
-0.934404
-0.985609
-1.04275
-1.10706
-1.1796
-1.26068
-1.34942
-1.44492
-1.54884
-1.66331
-1.785
-1.91415
-2.05545
-0.441523
-0.434153
-0.428364
-0.423758
-0.420513
-0.418724
-0.418408
-0.419594
-0.422307
-0.42656
-0.432354
-0.439678
-0.448506
-0.458792
-0.470477
-0.483488
-0.49776
-0.513247
-0.529924
-0.547781
-0.566818
-0.587054
-0.608537
-0.631335
-0.655546
-0.68131
-0.708816
-0.738281
-0.769929
-0.803991
-0.840719
-0.880409
-0.923443
-0.970371
-1.02196
-1.07915
-1.14285
-1.21382
-1.29243
-1.37845
-1.47171
-1.57305
-1.68343
-1.80182
-1.92875
-2.06665
-0.460454
-0.454403
-0.449586
-0.445753
-0.443104
-0.441814
-0.441959
-0.443585
-0.446713
-0.451351
-0.457493
-0.465126
-0.474229
-0.484768
-0.496695
-0.509952
-0.524482
-0.540247
-0.55723
-0.575434
-0.59487
-0.615562
-0.637553
-0.660906
-0.68571
-0.712089
-0.740206
-0.770246
-0.802398
-0.836879
-0.873957
-0.913959
-0.957279
-1.00442
-1.05603
-1.11288
-1.1757
-1.24513
-1.32153
-1.40503
-1.49581
-1.59444
-1.70154
-1.81692
-1.94129
-2.07607
-0.480039
-0.475286
-0.471267
-0.468087
-0.465965
-0.465121
-0.465678
-0.467692
-0.471186
-0.47616
-0.482607
-0.490512
-0.499857
-0.510618
-0.522759
-0.536237
-0.551001
-0.567017
-0.584271
-0.602772
-0.622541
-0.643608
-0.666014
-0.689815
-0.71509
-0.741946
-0.770527
-0.801
-0.833539
-0.868349
-0.905693
-0.9459
-0.989354
-1.03651
-1.08793
-1.14425
-1.2061
-1.27404
-1.34849
-1.42971
-1.51805
-1.61402
-1.71816
-1.83063
-1.95232
-2.08427
-0.500044
-0.496447
-0.493054
-0.490415
-0.488754
-0.488314
-0.489243
-0.491605
-0.495423
-0.500697
-0.507415
-0.515563
-0.525125
-0.536083
-0.548415
-0.562087
-0.577058
-0.593298
-0.610791
-0.629546
-0.64959
-0.670957
-0.693693
-0.71785
-0.743496
-0.770725
-0.799662
-0.830459
-0.863285
-0.898335
-0.93586
-0.976176
-1.01965
-1.06669
-1.11778
-1.17348
-1.23434
-1.30089
-1.37358
-1.45278
-1.53891
-1.63248
-1.73404
-1.8439
-1.96309
-2.09259
-0.520197
-0.517556
-0.514653
-0.512468
-0.511214
-0.511142
-0.51241
-0.515089
-0.519201
-0.524745
-0.53171
-0.540081
-0.549843
-0.560983
-0.573485
-0.587328
-0.602479
-0.618911
-0.636609
-0.655578
-0.675842
-0.697442
-0.720425
-0.744846
-0.77077
-0.79828
-0.827488
-0.85853
-0.891567
-0.926788
-0.96443
-1.00479
-1.0482
-1.09505
-1.14577
-1.20083
-1.26074
-1.32602
-1.39715
-1.47457
-1.55875
-1.65026
-1.74966
-1.85737
-1.97452
-2.10214
-0.540222
-0.538328
-0.535827
-0.534036
-0.533151
-0.533421
-0.535007
-0.537979
-0.542361
-0.548156
-0.555351
-0.563931
-0.573883
-0.585197
-0.597859
-0.611854
-0.627162
-0.643757
-0.661626
-0.68077
-0.701209
-0.722982
-0.746138
-0.770738
-0.796848
-0.82455
-0.853944
-0.885159
-0.918345
-0.953683
-0.991396
-1.03176
-1.07508
-1.12173
-1.17207
-1.22655
-1.28564
-1.34984
-1.41964
-1.49555
-1.57812
-1.66791
-1.76555
-1.87153
-1.98711
-2.11332
-0.55986
-0.558527
-0.556378
-0.554946
-0.554406
-0.555003
-0.556893
-0.560145
-0.564784
-0.570814
-0.578227
-0.587009
-0.597146
-0.608628
-0.621444
-0.635583
-0.651029
-0.667765
-0.685778
-0.705066
-0.725644
-0.747546
-0.770821
-0.795532
-0.821751
-0.849562
-0.879064
-0.910379
-0.943653
-0.979058
-1.0168
-1.05714
-1.10037
-1.14681
-1.19683
-1.25083
-1.30926
-1.3726
-1.44137
-1.51613
-1.59745
-1.68595
-1.78229
-1.88698
-2.00139
-2.12662
-0.578885
-0.577963
-0.57614
-0.575047
-0.57484
-0.575756
-0.577942
-0.581465
-0.586352
-0.592609
-0.600232
-0.609207
-0.619524
-0.631171
-0.644138
-0.658414
-0.673989
-0.69085
-0.708987
-0.728397
-0.74909
-0.771095
-0.794457
-0.819239
-0.845516
-0.873378
-0.902926
-0.934284
-0.967594
-1.00303
-1.04077
-1.08108
-1.12421
-1.17048
-1.22023
-1.27385
-1.33177
-1.39448
-1.46252
-1.53647
-1.61695
-1.70462
-1.80013
-1.90405
-2.01778
-2.1425
-0.597113
-0.596494
-0.594982
-0.594213
-0.59433
-0.595559
-0.598037
-0.601826
-0.606955
-0.613432
-0.621256
-0.630418
-0.640908
-0.652714
-0.665826
-0.680235
-0.695931
-0.712906
-0.731153
-0.750669
-0.771462
-0.793555
-0.816989
-0.841826
-0.868142
-0.896028
-0.925594
-0.956964
-0.990284
-1.02572
-1.06346
-1.10374
-1.1468
-1.19295
-1.24251
-1.29587
-1.35344
-1.41574
-1.48331
-1.55678
-1.63678
-1.72401
-1.81916
-1.92279
-2.03635
-2.16107
-0.614416
-0.614023
-0.61281
-0.612352
-0.612784
-0.614318
-0.617081
-0.621131
-0.626496
-0.633187
-0.641205
-0.650546
-0.661201
-0.673158
-0.686408
-0.700942
-0.716752
-0.733832
-0.752177
-0.771785
-0.792665
-0.814838
-0.838341
-0.863231
-0.889585
-0.917497
-0.947079
-0.978463
-1.0118
-1.04725
-1.08501
-1.12529
-1.16835
-1.21446
-1.26395
-1.31719
-1.37461
-1.43673
-1.5041
-1.57739
-1.65726
-1.74444
-1.83964
-1.9434
-2.05722
-2.18236
-0.630719
-0.630496
-0.629571
-0.62941
-0.630144
-0.631974
-0.635014
-0.639317
-0.644911
-0.651809
-0.660015
-0.669526
-0.680336
-0.692436
-0.705815
-0.720466
-0.736382
-0.753556
-0.771988
-0.791676
-0.812632
-0.834875
-0.858444
-0.883391
-0.909793
-0.937746
-0.967365
-0.998786
-1.03216
-1.06767
-1.10549
-1.14585
-1.18898
-1.23518
-1.28474
-1.33805
-1.39555
-1.45774
-1.52523
-1.59868
-1.67879
-1.76631
-1.86194
-1.96624
-2.08069
-2.20656
-0.645993
-0.645898
-0.645249
-0.645368
-0.646391
-0.648505
-0.65181
-0.656357
-0.662173
-0.669271
-0.677658
-0.687332
-0.698289
-0.710522
-0.724021
-0.73878
-0.754792
-0.772052
-0.790559
-0.810317
-0.831337
-0.853644
-0.877274
-0.902282
-0.928743
-0.956756
-0.986439
-1.01793
-1.05139
-1.08699
-1.12494
-1.16545
-1.20877
-1.25517
-1.30497
-1.35856
-1.41637
-1.47894
-1.54687
-1.62084
-1.70158
-1.78983
-1.88628
-1.9915
-2.1069
-2.23375
-0.660237
-0.660242
-0.659855
-0.660238
-0.661535
-0.663918
-0.667477
-0.672258
-0.678288
-0.685579
-0.69414
-0.70397
-0.715066
-0.727424
-0.741035
-0.755894
-0.771995
-0.789332
-0.807906
-0.827724
-0.848802
-0.871166
-0.894855
-0.919926
-0.946457
-0.974549
-1.00432
-1.03592
-1.06951
-1.10526
-1.1434
-1.18414
-1.22774
-1.27447
-1.32467
-1.37873
-1.43709
-1.50031
-1.569
-1.64384
-1.72556
-1.81491
-1.91256
-2.019
-2.13562
-2.26362
-0.673471
-0.673553
-0.673413
-0.674045
-0.675602
-0.67824
-0.682041
-0.687046
-0.69328
-0.700757
-0.709485
-0.719464
-0.730694
-0.74317
-0.756888
-0.771841
-0.788023
-0.805431
-0.824068
-0.843943
-0.865075
-0.887494
-0.911243
-0.936384
-0.962996
-0.991186
-1.02108
-1.05281
-1.08657
-1.12253
-1.16093
-1.20198
-1.24595
-1.29313
-1.34387
-1.39857
-1.45769
-1.52179
-1.5915
-1.6675
-1.75052
-1.84127
-1.94037
-2.04829
-2.16627
-2.29543
-0.685721
-0.685861
-0.685954
-0.68682
-0.688624
-0.691505
-0.695535
-0.700753
-0.707184
-0.714839
-0.723727
-0.73385
-0.745207
-0.757796
-0.771614
-0.786656
-0.802916
-0.820393
-0.839091
-0.859024
-0.880214
-0.902692
-0.926508
-0.951726
-0.978435
-1.00674
-1.03677
-1.06869
-1.10266
-1.13889
-1.17759
-1.21903
-1.26346
-1.31121
-1.36261
-1.4181
-1.47815
-1.54333
-1.61428
-1.69166
-1.7762
-1.86855
-1.96929
-2.07878
-2.19813
-2.32832
-0.69701
-0.697197
-0.697506
-0.698594
-0.700631
-0.703742
-0.707991
-0.713413
-0.72003
-0.727855
-0.736896
-0.747154
-0.758632
-0.771329
-0.785243
-0.80037
-0.816706
-0.834252
-0.853015
-0.873011
-0.894264
-0.916811
-0.940705
-0.966018
-0.992841
-1.02129
-1.05149
-1.08362
-1.11785
-1.15439
-1.19348
-1.23537
-1.28036
-1.32876
-1.38095
-1.43735
-1.49848
-1.56489
-1.63724
-1.71617
-1.80237
-1.89643
-1.99887
-2.10991
-2.2305
-2.36143
-0.70736
-0.707582
-0.708092
-0.70939
-0.711649
-0.714978
-0.719433
-0.725047
-0.731841
-0.739827
-0.749011
-0.759398
-0.77099
-0.783789
-0.797794
-0.813002
-0.829412
-0.847029
-0.865861
-0.885927
-0.907253
-0.929881
-0.95387
-0.979295
-1.00625
-1.03487
-1.06528
-1.09765
-1.13218
-1.1691
-1.20863
-1.25105
-1.29667
-1.34583
-1.3989
-1.45634
-1.51866
-1.58644
-1.6603
-1.74089
-1.82881
-1.92462
-2.02869
-2.14116
-2.26271
-2.39395
-0.716784
-0.717035
-0.71773
-0.719225
-0.721692
-0.725227
-0.729877
-0.735672
-0.742631
-0.750766
-0.760083
-0.770589
-0.782288
-0.795181
-0.809271
-0.824557
-0.84104
-0.858729
-0.877635
-0.897778
-0.919188
-0.941911
-0.96601
-0.991567
-1.01869
-1.04749
-1.07814
-1.1108
-1.14568
-1.18301
-1.22305
-1.26607
-1.3124
-1.3624
-1.41645
-1.47502
-1.53864
-1.60786
-1.68331
-1.76559
-1.85523
-1.95271
-2.05828
-2.17191
-2.29405
-2.42503
-0.725292
-0.725569
-0.72643
-0.72811
-0.730773
-0.734499
-0.739329
-0.745292
-0.752403
-0.760674
-0.770114
-0.780728
-0.792523
-0.805504
-0.819672
-0.83503
-0.851584
-0.869345
-0.888326
-0.908551
-0.930053
-0.952882
-0.977107
-1.00281
-1.03011
-1.05914
-1.09005
-1.12303
-1.1583
-1.1961
-1.23669
-1.28038
-1.32749
-1.37839
-1.4335
-1.49328
-1.55825
-1.62897
-1.70603
-1.78996
-1.88124
-1.98021
-2.08701
-2.20143
-2.32365
-2.45372
-0.732889
-0.733192
-0.734202
-0.736052
-0.738894
-0.742796
-0.747792
-0.753907
-0.761156
-0.76955
-0.779098
-0.78981
-0.80169
-0.814747
-0.828984
-0.844408
-0.861029
-0.878858
-0.897914
-0.918223
-0.939821
-0.962765
-0.987125
-1.013
-1.04049
-1.06975
-1.10095
-1.13429
-1.16998
-1.20828
-1.24947
-1.29387
-1.34181
-1.39368
-1.4499
-1.51092
-1.57727
-1.64948
-1.72809
-1.81357
-1.9063
-2.0065
-2.11415
-2.22888
-2.35057
-2.47898
-0.739578
-0.739906
-0.741048
-0.743052
-0.746057
-0.750119
-0.755264
-0.761515
-0.768886
-0.777389
-0.787032
-0.797827
-0.80978
-0.822901
-0.837196
-0.852676
-0.869354
-0.887246
-0.906371
-0.92676
-0.948455
-0.971515
-0.996016
-1.02206
-1.04976
-1.07927
-1.11078
-1.14449
-1.18062
-1.21945
-1.26127
-1.30641
-1.35521
-1.40807
-1.46541
-1.52769
-1.59539
-1.66902
-1.74905
-1.83589
-1.9298
-2.03086
-2.13888
-2.25334
-2.37381
-2.49977
-0.745359
-0.745714
-0.74697
-0.749112
-0.752264
-0.756467
-0.761745
-0.768116
-0.775592
-0.784187
-0.79391
-0.804772
-0.816783
-0.829954
-0.844294
-0.859817
-0.87654
-0.894482
-0.913667
-0.934129
-0.955914
-0.979086
-1.00373
-1.02994
-1.05785
-1.08762
-1.11944
-1.15352
-1.19011
-1.22948
-1.27194
-1.31783
-1.3675
-1.42135
-1.47979
-1.54327
-1.61224
-1.68716
-1.76843
-1.85636
-1.95108
-2.05253
-2.16037
-2.27393
-2.39248
-2.5152
-0.750232
-0.750615
-0.751972
-0.754235
-0.757516
-0.761843
-0.767236
-0.773708
-0.781273
-0.789942
-0.799728
-0.810641
-0.822693
-0.835897
-0.850265
-0.865816
-0.882568
-0.900545
-0.919775
-0.940296
-0.962159
-0.985432
-1.0102
-1.03657
-1.06469
-1.09471
-1.12683
-1.16128
-1.19831
-1.23822
-1.28131
-1.32794
-1.37846
-1.43326
-1.49275
-1.55734
-1.62745
-1.70347
-1.78571
-1.87438
-1.96949
-2.07083
-2.17791
-2.28992
-2.40589
-2.52473
-0.754198
-0.754612
-0.756055
-0.758426
-0.761818
-0.766252
-0.771741
-0.778297
-0.785932
-0.794658
-0.804487
-0.815432
-0.827505
-0.840722
-0.8551
-0.870659
-0.887421
-0.905414
-0.92467
-0.945231
-0.967154
-0.990509
-1.01539
-1.0419
-1.0702
-1.10045
-1.13286
-1.16766
-1.20512
-1.24554
-1.28923
-1.33656
-1.38787
-1.44356
-1.504
-1.56957
-1.64063
-1.7175
-1.8004
-1.88942
-1.98445
-2.08516
-2.19094
-2.30085
-2.41374
-2.52827
-0.75726
-0.757709
-0.759226
-0.761689
-0.765178
-0.769701
-0.775267
-0.781888
-0.789573
-0.798335
-0.808188
-0.819143
-0.831218
-0.844428
-0.858794
-0.874338
-0.891088
-0.909073
-0.928331
-0.948909
-0.970866
-0.994276
-1.01924
-1.04587
-1.07432
-1.10477
-1.13744
-1.17255
-1.2104
-1.25128
-1.29553
-1.3435
-1.39553
-1.45201
-1.51326
-1.57963
-1.65142
-1.72885
-1.81206
-1.90102
-1.99552
-2.09511
-2.19912
-2.30655
-2.41608
-2.5262
-0.759425
-0.759912
-0.761492
-0.764035
-0.767603
-0.772197
-0.777823
-0.784488
-0.792204
-0.800982
-0.810836
-0.821781
-0.833833
-0.847013
-0.861343
-0.876848
-0.893559
-0.91151
-0.930742
-0.951306
-0.973265
-0.996698
-1.02171
-1.04842
-1.07699
-1.1076
-1.14047
-1.17585
-1.21403
-1.25533
-1.30006
-1.34858
-1.40123
-1.45836
-1.52027
-1.58723
-1.65949
-1.73717
-1.82032
-1.90882
-2.00236
-2.10044
-2.20236
-2.30712
-2.41331
-2.51932
-0.760698
-0.761227
-0.762862
-0.765471
-0.769103
-0.773752
-0.779418
-0.786108
-0.793833
-0.802606
-0.812439
-0.82335
-0.835357
-0.848482
-0.862749
-0.878189
-0.894832
-0.912717
-0.931889
-0.952404
-0.974327
-0.997743
-1.02276
-1.0495
-1.07814
-1.10886
-1.14188
-1.17747
-1.21592
-1.25754
-1.30267
-1.35164
-1.40479
-1.46241
-1.52478
-1.5921
-1.66454
-1.74216
-1.82489
-1.91255
-2.00479
-2.10109
-2.20078
-2.30292
-2.40611
-2.50864
-0.76109