/*--------------------------------*- C++ -*----------------------------------*\
  =========                 |
  \\      /  F ield         | OpenFOAM: The Open Source CFD Toolbox
   \\    /   O peration     | Website:  https://openfoam.org
    \\  /    A nd           | Version:  7
     \\/     M anipulation  |
\*---------------------------------------------------------------------------*/
FoamFile
{
    version     2.0;
    format      ascii;
    class       surfaceScalarField;
    location    "0.4";
    object      phi;
}
// * * * * * * * * * * * * * * * * * * * * * * * * * * * * * * * * * * * * * //

dimensions      [0 3 -1 0 0 0 0];

internalField   nonuniform List<scalar> 
17936
(
-1.83939e-06
1.83939e-06
-2.53216e-06
6.92768e-07
-2.09255e-06
-4.3961e-07
-1.11016e-06
-9.82389e-07
9.65634e-08
-1.20672e-06
1.37302e-06
-1.27646e-06
2.64896e-06
-1.27594e-06
3.88586e-06
-1.23691e-06
5.06743e-06
-1.18157e-06
6.18911e-06
-1.12168e-06
7.25268e-06
-1.06357e-06
8.26317e-06
-1.01048e-06
9.22684e-06
-9.63676e-07
1.01501e-05
-9.23259e-07
1.10388e-05
-8.88678e-07
1.18978e-05
-8.59022e-07
1.2731e-05
-8.33204e-07
1.35411e-05
-8.10059e-07
1.43295e-05
-7.88398e-07
1.50965e-05
-7.67021e-07
1.58412e-05
-7.4471e-07
1.65614e-05
-7.2021e-07
1.72536e-05
-6.92194e-07
1.79128e-05
-6.59227e-07
1.85325e-05
-6.19712e-07
1.91044e-05
-5.71825e-07
1.96178e-05
-5.13414e-07
2.00596e-05
-4.4183e-07
2.04131e-05
-3.53517e-07
2.06562e-05
-2.43047e-07
2.07531e-05
-9.69296e-08
2.06441e-05
1.09046e-07
2.02659e-05
3.78195e-07
1.95602e-05
7.05681e-07
1.84532e-05
1.10702e-06
1.68589e-05
1.59426e-06
1.46915e-05
2.16739e-06
1.18954e-05
2.79609e-06
8.49276e-06
3.40267e-06
4.62928e-06
3.86347e-06
5.56596e-07
4.07269e-06
-3.85384e-06
4.41043e-06
-7.85657e-06
4.00274e-06
-9.58455e-06
1.72798e-06
-6.91672e-06
-2.66783e-06
-6.91672e-06
-1.45575e-06
3.29514e-06
-1.4965e-06
7.33514e-07
-9.23956e-07
-1.01215e-06
1.05082e-08
-1.91685e-06
1.13045e-06
-2.32666e-06
2.33947e-06
-2.48547e-06
3.56437e-06
-2.50084e-06
4.7679e-06
-2.44044e-06
5.93107e-06
-2.34473e-06
7.0464e-06
-2.23701e-06
8.11316e-06
-2.13033e-06
9.13416e-06
-2.03149e-06
1.01139e-05
-1.94339e-06
1.10572e-05
-1.86658e-06
1.19688e-05
-1.80027e-06
1.28526e-05
-1.74286e-06
1.37118e-05
-1.69237e-06
1.45484e-05
-1.64663e-06
1.53633e-05
-1.60338e-06
1.61566e-05
-1.5603e-06
1.6927e-05
-1.51503e-06
1.76719e-05
-1.46511e-06
1.83876e-05
-1.40794e-06
1.90691e-05
-1.34069e-06
1.97096e-05
-1.26021e-06
2.03006e-05
-1.16291e-06
2.08318e-05
-1.04456e-06
2.129e-05
-9.0001e-07
2.16591e-05
-7.22699e-07
2.19199e-05
-5.03772e-07
2.20533e-05
-2.30318e-07
2.20434e-05
1.18933e-07
2.18564e-05
5.65135e-07
2.14355e-05
1.12665e-06
2.07144e-05
1.82807e-06
1.96118e-05
2.6969e-06
1.80272e-05
3.75191e-06
1.58462e-05
4.97712e-06
1.29657e-05
6.28322e-06
9.35524e-06
7.47389e-06
5.10671e-06
8.32122e-06
6.16651e-07
8.90049e-06
-3.48341e-06
8.1028e-06
-5.83353e-06
4.0781e-06
-5.44378e-06
-3.05758e-06
-1.23605e-05
-8.85553e-07
4.1807e-06
-7.01537e-07
5.49498e-07
-9.14445e-08
-1.62225e-06
7.95567e-07
-2.80386e-06
1.861e-06
-3.3921e-06
3.00781e-06
-3.63228e-06
4.17734e-06
-3.67037e-06
5.33489e-06
-3.59799e-06
6.46178e-06
-3.47162e-06
7.54973e-06
-3.32496e-06
8.59673e-06
-3.17733e-06
9.60425e-06
-3.03901e-06
1.05755e-05
-2.91464e-06
1.15143e-05
-2.80536e-06
1.24243e-05
-2.71027e-06
1.33087e-05
-2.62728e-06
1.417e-05
-2.55364e-06
1.50096e-05
-2.48629e-06
1.58282e-05
-2.42199e-06
1.66253e-05
-2.35741e-06
1.73994e-05
-2.2891e-06
1.81478e-05
-2.21347e-06
1.88666e-05
-2.12671e-06
1.95505e-05
-2.02466e-06
2.0193e-05
-1.90268e-06
2.07856e-05
-1.7555e-06
2.1318e-05
-1.57693e-06
2.17775e-05
-1.35953e-06
2.21488e-05
-1.09407e-06
2.24138e-05
-7.68708e-07
2.25516e-05
-3.68087e-07
2.25409e-05
1.296e-07
2.23546e-05
7.51424e-07
2.19549e-05
1.52635e-06
2.12959e-05
2.48711e-06
2.03237e-05
3.66905e-06
1.8976e-05
5.09959e-06
1.718e-05
6.77319e-06
1.48548e-05
8.60838e-06
1.19323e-05
1.03964e-05
8.44039e-06
1.18132e-05
4.73174e-06
1.26091e-05
1.06497e-06
1.17696e-05
-1.90879e-06
7.05185e-06
-3.12192e-06
-1.84445e-06
-1.54824e-05
-3.60237e-07
4.54093e-06
-5.38419e-08
2.43103e-07
5.80311e-07
-2.2564e-06
1.45528e-06
-3.67883e-06
2.47782e-06
-4.41464e-06
3.57383e-06
-4.7283e-06
4.69366e-06
-4.7902e-06
5.80679e-06
-4.71112e-06
6.89618e-06
-4.56101e-06
7.95371e-06
-4.3825e-06
8.97682e-06
-4.20043e-06
9.9661e-06
-4.0283e-06
1.09238e-05
-3.87234e-06
1.18528e-05
-3.73436e-06
1.2756e-05
-3.61343e-06
1.36357e-05
-3.50706e-06
1.4494e-05
-3.41188e-06
1.53317e-05
-3.32403e-06
1.61491e-05
-3.23939e-06
1.69454e-05
-3.15368e-06
1.77188e-05
-3.06246e-06
1.84664e-05
-2.96107e-06
1.91842e-05
-2.84453e-06
1.9867e-05
-2.70744e-06
2.0508e-05
-2.54374e-06
2.10991e-05
-2.34657e-06
2.16301e-05
-2.10792e-06
2.20888e-05
-1.81824e-06
2.24606e-05
-1.46591e-06
2.27284e-05
-1.03645e-06
2.28721e-05
-5.11854e-07
2.28702e-05
1.31574e-07
2.26978e-05
9.23838e-07
2.23251e-05
1.89899e-06
2.17177e-05
3.0945e-06
2.08379e-05
4.5489e-06
1.96458e-05
6.29164e-06
1.80991e-05
8.31997e-06
1.61499e-05
1.05575e-05
1.3748e-05
1.27983e-05
1.08939e-05
1.46672e-05
7.77871e-06
1.57244e-05
4.60607e-06
1.49422e-05
1.48585e-06
1.01721e-05
-5.26708e-07
1.68099e-07
-1.60091e-05
7.86731e-08
4.46226e-06
4.70577e-07
-1.48801e-07
1.15167e-06
-2.93749e-06
2.02648e-06
-4.55364e-06
3.02152e-06
-5.40968e-06
4.07762e-06
-5.7844e-06
5.15445e-06
-5.86702e-06
6.22675e-06
-5.78342e-06
7.28006e-06
-5.61433e-06
8.3072e-06
-5.40963e-06
9.30553e-06
-5.19877e-06
1.02752e-05
-4.99791e-06
1.12176e-05
-4.81475e-06
1.21349e-05
-4.65166e-06
1.30292e-05
-4.50775e-06
1.39023e-05
-4.38022e-06
1.47556e-05
-4.26513e-06
1.55895e-05
-4.15794e-06
1.64039e-05
-4.05374e-06
1.71975e-05
-3.94737e-06
1.79685e-05
-3.83347e-06
1.87138e-05
-3.70638e-06
1.94294e-05
-3.56004e-06
2.01098e-05
-3.38785e-06
2.07485e-05
-3.18244e-06
2.13373e-05
-2.93544e-06
2.18666e-05
-2.63716e-06
2.23245e-05
-2.27613e-06
2.26972e-05
-1.8386e-06
2.29685e-05
-1.30779e-06
2.312e-05
-6.63332e-07
2.31311e-05
1.20426e-07
2.29797e-05
1.07524e-06
2.26412e-05
2.23754e-06
2.20888e-05
3.64684e-06
2.12956e-05
5.34209e-06
2.02356e-05
7.35163e-06
1.88839e-05
9.67174e-06
1.7213e-05
1.22283e-05
1.51895e-05
1.48219e-05
1.27949e-05
1.70618e-05
1.01231e-05
1.83962e-05
7.2926e-06
1.77727e-05
4.20275e-06
1.32619e-05
1.4216e-06
2.94925e-06
-1.45875e-05
3.92506e-07
4.06975e-06
8.96456e-07
-6.5275e-07
1.63241e-06
-3.67345e-06
2.52169e-06
-5.44292e-06
3.5022e-06
-6.39019e-06
4.52808e-06
-6.81028e-06
5.56857e-06
-6.90751e-06
6.60432e-06
-6.81917e-06
7.6241e-06
-6.63411e-06
8.62214e-06
-6.40767e-06
9.59618e-06
-6.1728e-06
1.0546e-05
-5.94777e-06
1.14727e-05
-5.74141e-06
1.23776e-05
-5.55657e-06
1.32623e-05
-5.3924e-06
1.41279e-05
-5.24583e-06
1.49752e-05
-5.11243e-06
1.58043e-05
-4.98705e-06
1.66146e-05
-4.86407e-06
1.74048e-05
-4.73755e-06
1.81726e-05
-4.60128e-06
1.89149e-05
-4.44865e-06
1.96274e-05
-4.27261e-06
2.0305e-05
-4.06543e-06
2.09411e-05
-3.81849e-06
2.15277e-05
-3.52206e-06
2.20554e-05
-3.16487e-06
2.2513e-05
-2.73374e-06
2.28875e-05
-2.21304e-06
2.31637e-05
-1.58404e-06
2.33248e-05
-8.24381e-07
2.3352e-05
9.31624e-08
2.32259e-05
1.20137e-06
2.29259e-05
2.53755e-06
2.24313e-05
4.14146e-06
2.17224e-05
6.05095e-06
2.0782e-05
8.292e-06
1.95949e-05
1.08589e-05
1.81438e-05
1.36794e-05
1.64028e-05
1.65629e-05
1.43392e-05
1.91254e-05
1.19737e-05
2.07616e-05
9.34e-06
2.04065e-05
6.28453e-06
1.63174e-05
2.96144e-06
6.27233e-06
-1.16261e-05
5.77214e-07
3.49254e-06
1.22215e-06
-1.29768e-06
2.03102e-06
-4.48232e-06
2.94742e-06
-6.35932e-06
3.92388e-06
-7.36665e-06
4.9278e-06
-7.81421e-06
5.93813e-06
-7.91784e-06
6.94178e-06
-7.82281e-06
7.93108e-06
-7.62341e-06
8.90202e-06
-7.37861e-06
9.85293e-06
-7.12372e-06
1.07836e-05
-6.87847e-06
1.16947e-05
-6.6525e-06
1.25871e-05
-6.44898e-06
1.34618e-05
-6.26707e-06
1.43194e-05
-6.10342e-06
1.51602e-05
-5.95323e-06
1.59839e-05
-5.81078e-06
1.67897e-05
-5.66981e-06
1.75758e-05
-5.52367e-06
1.83399e-05
-5.36536e-06
1.90787e-05
-5.18744e-06
1.97879e-05
-4.98189e-06
2.04624e-05
-4.73995e-06
2.10958e-05
-4.45185e-06
2.16803e-05
-4.10657e-06
2.22069e-05
-3.69145e-06
2.26649e-05
-3.19177e-06
2.30422e-05
-2.59027e-06
2.33247e-05
-1.86658e-06
2.34971e-05
-9.96794e-07
2.35428e-05
4.74228e-08
2.34449e-05
1.29931e-06
2.31864e-05
2.79608e-06
2.27511e-05
4.5767e-06
2.21249e-05
6.6772e-06
2.12958e-05
9.12105e-06
2.02537e-05
1.19011e-05
1.8985e-05
1.49481e-05
1.74649e-05
1.8083e-05
1.56487e-05
2.09416e-05
1.35008e-05
2.29094e-05
1.09756e-05
2.29317e-05
7.90955e-06
1.93834e-05
4.15995e-06
1.00219e-05
-7.46613e-06
6.82408e-07
2.81013e-06
1.46769e-06
-2.08296e-06
2.35865e-06
-5.37328e-06
3.31026e-06
-7.31094e-06
4.29007e-06
-8.34646e-06
5.27853e-06
-8.80267e-06
6.26412e-06
-8.90343e-06
7.23994e-06
-8.79863e-06
8.20198e-06
-8.58545e-06
9.1481e-06
-8.32473e-06
1.00775e-05
-8.05307e-06
1.099e-05
-7.79097e-06
1.1886e-05
-7.54852e-06
1.27661e-05
-7.32906e-06
1.36307e-05
-7.13167e-06
1.448e-05
-6.95279e-06
1.5314e-05
-6.7872e-06
1.61319e-05
-6.62872e-06
1.69326e-05
-6.4705e-06
1.77142e-05
-6.30528e-06
1.84742e-05
-6.12531e-06
1.92091e-05
-5.92238e-06
1.99148e-05
-5.6876e-06
2.05861e-05
-5.41125e-06
2.12168e-05
-5.0825e-06
2.17994e-05
-4.68917e-06
2.23253e-05
-4.21732e-06
2.27844e-05
-3.65091e-06
2.31654e-05
-2.97126e-06
2.34555e-05
-2.15669e-06
2.36409e-05
-1.18216e-06
2.3707e-05
-1.86877e-08
2.36394e-05
1.36692e-06
2.34243e-05
3.01119e-06
2.30493e-05
4.95165e-06
2.25042e-05
7.22235e-06
2.17805e-05
9.84472e-06
2.08703e-05
1.28113e-05
1.97603e-05
1.6058e-05
1.84229e-05
1.94205e-05
1.68023e-05
2.25621e-05
1.48213e-05
2.48905e-05
1.23637e-05
2.53894e-05
9.21186e-06
2.25353e-05
5.07194e-06
1.41618e-05
-2.39419e-06
7.48788e-07
2.06134e-06
1.65793e-06
-2.9921e-06
2.6292e-06
-6.34455e-06
3.61824e-06
-8.29998e-06
4.6053e-06
-9.33352e-06
5.58282e-06
-9.78018e-06
6.54805e-06
-9.86866e-06
7.49987e-06
-9.75046e-06
8.43775e-06
-9.52332e-06
9.36142e-06
-9.24841e-06
1.02709e-05
-8.96252e-06
1.11663e-05
-8.68638e-06
1.20479e-05
-8.43013e-06
1.29159e-05
-8.19711e-06
1.37705e-05
-7.98626e-06
1.46115e-05
-7.79375e-06
1.54383e-05
-7.61404e-06
1.62501e-05
-7.44048e-06
1.70453e-05
-7.26574e-06
1.7822e-05
-7.08194e-06
1.85774e-05
-6.88071e-06
1.93081e-05
-6.65311e-06
2.001e-05
-6.38946e-06
2.06779e-05
-6.07916e-06
2.13058e-05
-5.71042e-06
2.18866e-05
-5.26999e-06
2.24121e-05
-4.74284e-06
2.2873e-05
-4.11173e-06
2.32586e-05
-3.35685e-06
2.35573e-05
-2.45548e-06
2.3757e-05
-1.38181e-06
2.38449e-05
-1.06641e-07
2.38091e-05
1.40271e-06
2.36387e-05
3.18164e-06
2.33244e-05
5.26596e-06
2.28589e-05
7.68778e-06
2.22364e-05
1.04673e-05
2.14495e-05
1.35982e-05
2.04839e-05
1.70236e-05
1.93072e-05
2.05972e-05
1.7853e-05
2.40163e-05
1.60108e-05
2.67326e-05
1.36025e-05
2.77977e-05
1.03348e-05
2.58029e-05
5.82691e-06
1.86697e-05
3.43272e-06
8.0151e-07
1.25983e-06
1.81394e-06
-4.00453e-06
2.85647e-06
-7.38707e-06
3.88011e-06
-9.32362e-06
4.87515e-06
-1.03286e-05
5.84431e-06
-1.07493e-05
6.79245e-06
-1.08168e-05
7.7235e-06
-1.06815e-05
8.63998e-06
-1.04398e-05
9.54337e-06
-1.01518e-05
1.04345e-05
-9.85367e-06
1.13139e-05
-9.56575e-06
1.21817e-05
-9.29795e-06
1.3038e-05
-9.0534e-06
1.38826e-05
-8.83083e-06
1.47149e-05
-8.62614e-06
1.55343e-05
-8.43343e-06
1.63395e-05
-8.24567e-06
1.71288e-05
-8.05504e-06
1.79e-05
-7.85315e-06
1.86504e-05
-7.63106e-06
1.93765e-05
-7.37918e-06
2.00741e-05
-7.0871e-06
2.07384e-05
-6.74342e-06
2.13634e-05
-6.33547e-06
2.19425e-05
-5.84907e-06
2.24679e-05
-5.26822e-06
2.29308e-05
-4.57469e-06
2.33217e-05
-3.74771e-06
2.363e-05
-2.7638e-06
2.38449e-05
-1.59673e-06
2.39558e-05
-2.17484e-07
2.39527e-05
1.40574e-06
2.38276e-05
3.30683e-06
2.35738e-05
5.5197e-06
2.31868e-05
8.07478e-06
2.26624e-05
1.09917e-05
2.19937e-05
1.42668e-05
2.11647e-05
1.78526e-05
2.01386e-05
2.16234e-05
1.88387e-05
2.53161e-05
1.71276e-05
2.84437e-05
1.4772e-05
3.01533e-05
1.14004e-05
2.91746e-05
6.56148e-06
2.35086e-05
9.99421e-06
8.5243e-07
4.07401e-07
1.95052e-06
-5.10263e-06
3.05217e-06
-8.48872e-06
4.10437e-06
-1.03758e-05
5.10579e-06
-1.133e-05
6.06759e-06
-1.17111e-05
7.00085e-06
-1.17501e-05
7.9136e-06
-1.15943e-05
8.81095e-06
-1.13372e-05
9.6959e-06
-1.10368e-05
1.05701e-05
-1.07279e-05
1.14343e-05
-1.043e-05
1.22888e-05
-1.01525e-05
1.31335e-05
-9.89809e-06
1.3968e-05
-9.66529e-06
1.47915e-05
-9.44964e-06
1.5603e-05
-9.24493e-06
1.64011e-05
-9.04374e-06
1.71838e-05
-8.83783e-06
1.7949e-05
-8.61834e-06
1.86938e-05
-8.3758e-06
1.94146e-05
-8.10004e-06
2.01076e-05
-7.78003e-06
2.07678e-05
-7.40362e-06
2.13897e-05
-6.95738e-06
2.19669e-05
-6.42629e-06
2.24922e-05
-5.79352e-06
2.29575e-05
-5.04002e-06
2.33541e-05
-4.14427e-06
2.36725e-05
-3.08225e-06
2.39034e-05
-1.82759e-06
2.40378e-05
-3.51846e-07
2.40679e-05
1.37554e-06
2.39881e-05
3.38665e-06
2.37945e-05
5.71336e-06
2.34847e-05
8.38459e-06
2.30562e-05
1.14201e-05
2.2503e-05
1.48201e-05
2.18079e-05
1.85477e-05
2.09308e-05
2.25005e-05
1.97874e-05
2.64596e-05
1.82186e-05
3.00125e-05
1.59437e-05
3.24282e-05
1.25118e-05
3.26065e-05
7.37468e-06
2.86458e-05
1.73689e-05
9.07209e-07
-4.99807e-07
2.07691e-06
-6.27233e-06
3.22517e-06
-9.63698e-06
4.29858e-06
-1.14492e-05
5.30346e-06
-1.23349e-05
6.25779e-06
-1.26655e-05
7.17746e-06
-1.26697e-05
8.07367e-06
-1.24905e-05
8.9536e-06
-1.22171e-05
9.82151e-06
-1.19047e-05
1.06798e-05
-1.15861e-05
1.15294e-05
-1.12797e-05
1.23709e-05
-1.09939e-05
1.3204e-05
-1.07311e-05
1.4028e-05
-1.04894e-05
1.48422e-05
-1.02638e-05
1.56453e-05
-1.0048e-05
1.64356e-05
-9.83404e-06
1.72111e-05
-9.61339e-06
1.79695e-05
-9.37674e-06
1.87079e-05
-9.11417e-06
1.94228e-05
-8.815e-06
2.01104e-05
-8.46761e-06
2.0766e-05
-8.05923e-06
2.13844e-05
-7.57571e-06
2.19594e-05
-7.00134e-06
2.24845e-05
-6.31859e-06
2.29522e-05
-5.50774e-06
2.33546e-05
-4.54671e-06
2.36835e-05
-3.41111e-06
2.39306e-05
-2.07472e-06
2.40887e-05
-5.09943e-07
2.41521e-05
1.31216e-06
2.41173e-05
3.4215e-06
2.39828e-05
5.84781e-06
2.37488e-05
8.61857e-06
2.34148e-05
1.17541e-05
2.29758e-05
1.52591e-05
2.24152e-05
1.91083e-05
2.1692e-05
2.32237e-05
2.07179e-05
2.74336e-05
1.93201e-05
3.14103e-05
1.718e-05
3.45683e-05
1.37666e-05
3.60199e-05
8.3739e-06
3.40385e-05
2.57428e-05
9.6811e-07
-1.46792e-06
2.1982e-06
-7.50241e-06
3.38164e-06
-1.08204e-05
4.46905e-06
-1.25366e-05
5.4741e-06
-1.33399e-05
6.42024e-06
-1.36116e-05
7.32689e-06
-1.35764e-05
8.20764e-06
-1.33712e-05
9.07126e-06
-1.30807e-05
9.92304e-06
-1.27564e-05
1.07659e-05
-1.2429e-05
1.16014e-05
-1.21151e-05
1.24298e-05
-1.18223e-05
1.32509e-05
-1.15523e-05
1.40642e-05
-1.13026e-05
1.48684e-05
-1.10681e-05
1.56622e-05
-1.08418e-05
1.64439e-05
-1.06157e-05
1.72113e-05
-1.03808e-05
1.79621e-05
-1.01274e-05
1.86932e-05
-9.84527e-06
1.94013e-05
-9.52317e-06
2.00827e-05
-9.14903e-06
2.0733e-05
-8.70949e-06
2.13471e-05
-8.18982e-06
2.19195e-05
-7.57371e-06
2.24439e-05
-6.84305e-06
2.29138e-05
-5.97763e-06
2.33221e-05
-4.95494e-06
2.36614e-05
-3.7504e-06
2.39247e-05
-2.33809e-06
2.41064e-05
-6.91585e-07
2.42025e-05
1.21607e-06
2.42117e-05
3.4123e-06
2.41351e-05
5.92439e-06
2.39753e-05
8.77835e-06
2.37342e-05
1.19952e-05
2.34091e-05
1.55842e-05
2.29855e-05
1.95319e-05
2.24249e-05
2.37843e-05
2.16409e-05
2.82176e-05
2.04577e-05
3.25935e-05
1.85339e-05
3.64921e-05
1.5267e-05
3.92867e-05
9.70783e-06
3.95977e-05
3.54506e-05
1.03491e-06
-2.50283e-06
2.31656e-06
-8.78407e-06
3.52565e-06
-1.20295e-05
4.62091e-06
-1.36319e-05
5.62314e-06
-1.43421e-05
6.5601e-06
-1.45486e-05
7.4538e-06
-1.44701e-05
8.31958e-06
-1.4237e-05
9.16742e-06
-1.39285e-05
1.00035e-05
-1.35925e-05
1.08312e-05
-1.32567e-05
1.16523e-05
-1.29362e-05
1.24674e-05
-1.26374e-05
1.32762e-05
-1.23611e-05
1.40778e-05
-1.21043e-05
1.48713e-05
-1.18615e-05
1.56549e-05
-1.16255e-05
1.6427e-05
-1.13878e-05
1.71853e-05
-1.11391e-05
1.79272e-05
-1.08694e-05
1.86499e-05
-1.0568e-05
1.93503e-05
-1.02235e-05
2.00245e-05
-9.82326e-06
2.06685e-05
-9.35347e-06
2.12775e-05
-8.79887e-06
2.18465e-05
-8.14264e-06
2.23697e-05
-7.36628e-06
2.28413e-05
-6.44921e-06
2.32549e-05
-5.36861e-06
2.36043e-05
-4.09981e-06
2.38836e-05
-2.61735e-06
2.40882e-05
-8.96193e-07
2.4216e-05
1.08825e-06
2.42679e-05
3.36045e-06
2.42473e-05
5.94494e-06
2.41597e-05
8.86599e-06
2.40097e-05
1.21451e-05
2.3798e-05
1.57959e-05
2.35144e-05
1.98155e-05
2.31266e-05
2.41722e-05
2.25575e-05
2.87866e-05
2.1643e-05
3.35081e-05
2.00446e-05
3.80905e-05
1.71198e-05
4.22115e-05
1.15802e-05
4.51373e-05
4.70308e-05
1.10686e-06
-3.60969e-06
2.43222e-06
-1.01094e-05
3.65964e-06
-1.32569e-05
4.75826e-06
-1.47305e-05
5.75538e-06
-1.53393e-05
6.68218e-06
-1.54754e-05
7.56264e-06
-1.53505e-05
8.41343e-06
-1.50878e-05
9.24553e-06
-1.47606e-05
1.00658e-05
-1.44128e-05
1.08782e-05
-1.40691e-05
1.16846e-05
-1.37426e-05
1.24857e-05
-1.34385e-05
1.32813e-05
-1.31566e-05
1.40705e-05
-1.28935e-05
1.48521e-05
-1.26431e-05
1.56245e-05
-1.23979e-05
1.63857e-05
-1.2149e-05
1.71335e-05
-1.18869e-05
1.78654e-05
-1.16012e-05
1.85784e-05
-1.12811e-05
1.92696e-05
-1.09147e-05
1.99355e-05
-1.04891e-05
2.0572e-05
-9.99001e-06
2.11749e-05
-9.40176e-06
2.17394e-05
-8.70715e-06
2.22605e-05
-7.88739e-06
2.2733e-05
-6.92169e-06
2.31514e-05
-5.78705e-06
2.35104e-05
-4.45874e-06
2.38048e-05
-2.91182e-06
2.40315e-05
-1.12282e-06
2.41897e-05
9.30062e-07
2.42822e-05
3.2679e-06
2.43152e-05
5.91191e-06
2.4297e-05
8.88422e-06
2.42357e-05
1.22064e-05
2.41362e-05
1.58955e-05
2.39944e-05
1.99573e-05
2.37882e-05
2.43784e-05
2.34582e-05
2.91166e-05
2.28698e-05
3.40965e-05
2.1727e-05
3.92333e-05
1.94346e-05
4.4504e-05
1.42537e-05
5.03182e-05
6.12845e-05
1.17961e-06
-4.7893e-06
2.54403e-06
-1.14738e-05
3.78513e-06
-1.4498e-05
4.88438e-06
-1.58298e-05
5.87489e-06
-1.63298e-05
6.79069e-06
-1.63912e-05
7.65741e-06
-1.62172e-05
8.49286e-06
-1.59232e-05
9.30894e-06
-1.55767e-05
1.01131e-05
-1.52169e-05
1.09097e-05
-1.48657e-05
1.17008e-05
-1.45338e-05
1.24872e-05
-1.42249e-05
1.32687e-05
-1.39381e-05
1.40445e-05
-1.36692e-05
1.48131e-05
-1.34117e-05
1.5573e-05
-1.31577e-05
1.63221e-05
-1.28981e-05
1.70581e-05
-1.26229e-05
1.77785e-05
-1.23217e-05
1.84806e-05
-1.19832e-05
1.91613e-05
-1.15954e-05
1.98173e-05
-1.11451e-05
2.04451e-05
-1.06178e-05
2.10406e-05
-9.99726e-06
2.15995e-05
-9.26606e-06
2.21174e-05
-8.40528e-06
2.25898e-05
-7.3941e-06
2.30121e-05
-6.2094e-06
2.33798e-05
-4.82637e-06
2.36885e-05
-3.22057e-06
2.39359e-05
-1.37023e-06
2.41227e-05
7.43292e-07
2.42536e-05
3.13703e-06
2.43372e-05
5.82831e-06
2.43849e-05
8.83649e-06
2.44088e-05
1.21825e-05
2.44186e-05
1.58857e-05
2.44179e-05
1.99579e-05
2.43979e-05
2.43984e-05
2.43243e-05
2.91903e-05
2.41108e-05
3.431e-05
2.35572e-05
3.97869e-05
2.22191e-05
4.58421e-05
1.78216e-05
5.47157e-05
7.91061e-05
5.09945e-07
-5.09945e-07
-9.68799e-07
1.47877e-06
-2.87185e-06
1.90305e-06
-4.57947e-06
1.70759e-06
-5.83301e-06
1.25354e-06
-6.57994e-06
7.46915e-07
-6.83478e-06
2.54864e-07
-6.65743e-06
-1.77362e-07
-6.13695e-06
-5.20476e-07
-5.34131e-06
-7.95652e-07
-4.32666e-06
-1.01464e-06
-3.13307e-06
-1.19358e-06
-1.79957e-06
-1.33351e-06
-3.6313e-07
-1.43646e-06
1.14245e-06
-1.50558e-06
2.68053e-06
-1.53809e-06
4.21061e-06
-1.53008e-06
5.69223e-06
-1.48162e-06
7.08565e-06
-1.39344e-06
8.35361e-06
-1.26795e-06
9.46197e-06
-1.10837e-06
1.03803e-05
-9.18368e-07
1.1084e-05
-7.0361e-07
1.15548e-05
-4.70772e-07
1.17784e-05
-2.23665e-07
1.17423e-05
3.61077e-08
1.14527e-05
2.89573e-07
1.09355e-05
5.1722e-07
1.02099e-05
7.2562e-07
9.29639e-06
9.13455e-07
8.21728e-06
1.07912e-06
6.99796e-06
1.21933e-06
5.66897e-06
1.32898e-06
4.27074e-06
1.39826e-06
2.86302e-06
1.40765e-06
1.55882e-06
1.30426e-06
5.26062e-07
1.03276e-06
5.26076e-07
-2.43597e-07
-2.66354e-07
-1.86543e-06
3.10059e-06
-3.74785e-06
3.78546e-06
-5.32258e-06
3.28226e-06
-6.39008e-06
2.32108e-06
-6.95412e-06
1.31094e-06
-7.06594e-06
3.66704e-07
-6.80955e-06
-4.33781e-07
-6.2379e-06
-1.0921e-06
-5.40388e-06
-1.62967e-06
-4.3565e-06
-2.06202e-06
-3.13845e-06
-2.41166e-06
-1.78693e-06
-2.68505e-06
-3.37778e-07
-2.88562e-06
1.17484e-06
-3.01819e-06
2.71532e-06
-3.07856e-06
4.24694e-06
-3.06171e-06
5.73328e-06
-2.96795e-06
7.13818e-06
-2.79837e-06
8.42638e-06
-2.55613e-06
9.56464e-06
-2.24662e-06
1.05225e-05
-1.87626e-06
1.12738e-05
-1.45483e-06
1.17978e-05
-9.94833e-07
1.20839e-05
-5.09729e-07
1.21293e-05
-9.3099e-09
1.1941e-05
4.77813e-07
1.15107e-05
9.47475e-07
1.08498e-05
1.38658e-06
9.97456e-06
1.78869e-06
8.90646e-06
2.14722e-06
7.67182e-06
2.45401e-06
6.30318e-06
2.69756e-06
4.84302e-06
2.8585e-06
3.35049e-06
2.90014e-06
1.91459e-06
2.74017e-06
7.04938e-07
2.24243e-06
1.23101e-06
-8.46306e-07
5.79944e-07
-2.52174e-06
4.77601e-06
-4.22178e-06
5.4855e-06
-5.62261e-06
4.68306e-06
-6.55755e-06
3.25604e-06
-7.03152e-06
1.78491e-06
-7.08713e-06
4.22321e-07
-6.78822e-06
-7.32692e-07
-6.18912e-06
-1.69119e-06
-5.34024e-06
-2.47853e-06
-4.28686e-06
-3.11543e-06
-3.07093e-06
-3.6276e-06
-1.72831e-06
-4.02767e-06
-2.93733e-07
-4.3202e-06
1.19872e-06
-4.51064e-06
2.71514e-06
-4.59497e-06
4.22124e-06
-4.56784e-06
5.68309e-06
-4.42979e-06
7.06727e-06
-4.18256e-06
8.34065e-06
-3.82951e-06
9.47168e-06
-3.37763e-06
1.04311e-05
-2.83566e-06
1.11928e-05
-2.21655e-06
1.17354e-05
-1.53744e-06
1.20436e-05
-8.17949e-07
1.21136e-05
-7.936e-08
1.19398e-05
6.51592e-07
1.15267e-05
1.36064e-06
1.08834e-05
2.02984e-06
1.00267e-05
2.6454e-06
8.97899e-06
3.19495e-06
7.76799e-06
3.66504e-06
6.42746e-06
4.03803e-06
4.99951e-06
4.28652e-06
3.53776e-06
4.36187e-06
2.11099e-06
4.16695e-06
8.54524e-07
3.49887e-06
2.08554e-06
-1.34925e-06
1.92919e-06
-3.0333e-06
6.46004e-06
-4.59844e-06
7.05066e-06
-5.86068e-06
5.9453e-06
-6.68557e-06
4.08095e-06
-7.07778e-06
2.17713e-06
-7.07816e-06
4.22708e-07
-6.74066e-06
-1.07019e-06
-6.11791e-06
-2.31393e-06
-5.25765e-06
-3.33878e-06
-4.20189e-06
-4.1712e-06
-2.99082e-06
-4.83868e-06
-1.65913e-06
-5.35935e-06
-2.40422e-07
-5.73889e-06
1.23177e-06
-5.98282e-06
2.72473e-06
-6.08792e-06
4.20598e-06
-6.04912e-06
5.64329e-06
-5.86709e-06
7.00515e-06
-5.54442e-06
8.26014e-06
-5.08452e-06
9.37829e-06
-4.49577e-06
1.03316e-05
-3.78893e-06
1.10946e-05
-2.97964e-06
1.16461e-05
-2.08888e-06
1.19697e-05
-1.14156e-06
1.20566e-05
-1.66334e-07
1.19016e-05
8.06607e-07
1.15081e-05
1.75423e-06
1.08854e-05
2.65251e-06
1.00504e-05
3.48039e-06
9.02611e-06
4.21924e-06
7.84126e-06
4.84991e-06
6.53038e-06
5.34886e-06
5.13502e-06
5.6819e-06
3.70521e-06
5.79168e-06
2.29865e-06
5.57353e-06
1.02172e-06
4.77579e-06
3.1073e-06
-1.69441e-06
3.6236e-06
-3.4433e-06
8.20892e-06
-4.92913e-06
8.53651e-06
-6.0826e-06
7.09877e-06
-6.812e-06
4.81035e-06
-7.12603e-06
2.49117e-06
-7.07029e-06
3.66966e-07
-6.69428e-06
-1.44619e-06
-6.04724e-06
-2.96098e-06
-5.17464e-06
-4.21137e-06
-4.11527e-06
-5.23058e-06
-2.90699e-06
-6.04695e-06
-1.58357e-06
-6.68276e-06
-1.77294e-07
-7.14515e-06
1.27901e-06
-7.43912e-06
2.75341e-06
-7.56233e-06
4.21486e-06
-7.51059e-06
5.63232e-06
-7.28454e-06
6.9755e-06
-6.88762e-06
8.21436e-06
-6.32338e-06
9.32015e-06
-5.60155e-06
1.0266e-05
-4.73476e-06
1.10274e-05
-3.74108e-06
1.15834e-05
-2.6449e-06
1.19174e-05
-1.47554e-06
1.20183e-05
-2.67243e-07
1.18805e-05
9.44456e-07
1.15058e-05
2.12889e-06
1.09034e-05
3.25493e-06
1.00897e-05
4.29412e-06
9.08778e-06
5.22109e-06
7.92688e-06
6.01081e-06
6.64168e-06
6.63405e-06
5.27288e-06
7.05069e-06
3.8681e-06
7.19644e-06
2.48122e-06
6.96043e-06
1.18273e-06
6.07432e-06
4.29006e-06
-1.94002e-06
5.56363e-06
-3.79111e-06
1.006e-05
-5.23692e-06
9.98233e-06
-6.30395e-06
8.16581e-06
-6.94612e-06
5.4525e-06
-7.18329e-06
2.72836e-06
-7.06911e-06
2.52778e-07
-6.65294e-06
-1.86235e-06
-5.97965e-06
-3.63428e-06
-5.09251e-06
-5.09851e-06
-4.0272e-06
-6.29589e-06
-2.81866e-06
-7.25548e-06
-1.49982e-06
-8.0016e-06
-1.01604e-07
-8.54338e-06
1.34403e-06
-8.88476e-06
2.80564e-06
-9.02394e-06
4.25328e-06
-8.95824e-06
5.65669e-06
-8.68795e-06
6.98633e-06
-8.21725e-06
8.2131e-06
-7.55016e-06
9.30916e-06
-6.69761e-06
1.02486e-05
-5.67414e-06
1.10076e-05
-4.50019e-06
1.1566e-05
-3.20326e-06
1.1907e-05
-1.81654e-06
1.20188e-05
-3.79073e-07
1.18951e-05
1.06821e-06
1.15366e-05
2.48735e-06
1.09517e-05
3.83982e-06
1.01562e-05
5.08956e-06
9.17316e-06
6.20415e-06
8.03151e-06
7.15247e-06
6.76575e-06
7.89981e-06
5.41533e-06
8.4011e-06
4.02454e-06
8.58723e-06
2.64003e-06
8.34492e-06
1.29413e-06
7.42025e-06
5.5842e-06
-2.12567e-06
7.68931e-06
-4.10881e-06
1.20432e-05
-5.5374e-06
1.14109e-05
-6.5307e-06
9.15912e-06
-7.08791e-06
6.00969e-06
-7.24662e-06
2.88709e-06
-7.07041e-06
7.65575e-08
-6.61167e-06
-2.32108e-06
-5.91016e-06
-4.3358e-06
-5.00639e-06
-6.00228e-06
-3.93308e-06
-7.36921e-06
-2.72162e-06
-8.46693e-06
-1.40392e-06
-9.31929e-06
-9.61142e-09
-9.93769e-06
1.43036e-06
-1.03247e-05
2.88486e-06
-1.04784e-05
4.32468e-06
-1.0398e-05
5.72008e-06
-1.00834e-05
7.04177e-06
-9.53892e-06
8.26123e-06
-8.76962e-06
9.35115e-06
-7.78753e-06
1.02862e-05
-6.6092e-06
1.10435e-05
-5.25747e-06
1.16031e-05
-3.76289e-06
1.19488e-05
-2.16219e-06
1.20684e-05
-4.98738e-07
1.19552e-05
1.18143e-06
1.16092e-05
2.83338e-06
1.10378e-05
4.41121e-06
1.02561e-05
5.87116e-06
9.28677e-06
7.17355e-06
8.15826e-06
8.28096e-06
6.90452e-06
9.15356e-06
5.56328e-06
9.74231e-06
4.17467e-06
9.97586e-06
2.77582e-06
9.74379e-06
1.37413e-06
8.82192e-06
6.95831e-06
-2.27468e-06
9.96399e-06
-4.42171e-06
1.41902e-05
-5.8408e-06
1.283e-05
-6.76228e-06
1.00806e-05
-7.23058e-06
6.47797e-06
-7.30592e-06
2.96244e-06
-7.06305e-06
-1.66319e-07
-6.55923e-06
-2.8249e-06
-5.82836e-06
-5.06667e-06
-4.90694e-06
-6.9237e-06
-3.82471e-06
-8.45145e-06
-2.60889e-06
-9.68274e-06
-1.28998e-06
-1.06382e-05
1.03637e-07
-1.13313e-05
1.54213e-06
-1.17632e-05
2.99461e-06
-1.19309e-05
4.43221e-06
-1.18356e-05
5.82546e-06
-1.14766e-05
7.14484e-06
-1.08583e-05
8.36203e-06
-9.98681e-06
9.44989e-06
-8.87539e-06
1.03834e-05
-7.5427e-06
1.11402e-05
-6.0142e-06
1.17008e-05
-4.3235e-06
1.20493e-05
-2.51074e-06
1.21739e-05
-6.23352e-07
1.20675e-05
1.28782e-06
1.17296e-05
3.17131e-06
1.11668e-05
4.97393e-06
1.03936e-05
6.6443e-06
9.43187e-06
8.13534e-06
8.30951e-06
9.40331e-06
7.05963e-06
1.04035e-05
5.71819e-06
1.10837e-05
4.3212e-06
1.13729e-05
2.89813e-06
1.11669e-05
1.44798e-06
1.02721e-05
8.40627e-06
-2.39956e-06
1.23636e-05
-4.74959e-06
1.65403e-05
-6.15146e-06
1.42318e-05
-6.991e-06
1.09201e-05
-7.35982e-06
6.84676e-06
-7.34339e-06
2.94602e-06
-7.0285e-06
-4.81219e-07
-6.47769e-06
-3.37571e-06
-5.71797e-06
-5.8264e-06
-4.77985e-06
-7.86181e-06
-3.68976e-06
-9.54155e-06
-2.47025e-06
-1.09023e-05
-1.14962e-06
-1.19588e-05
2.44855e-07
-1.27258e-05
1.68474e-06
-1.32031e-05
3.13928e-06
-1.33855e-05
4.57953e-06
-1.32759e-05
5.97598e-06
-1.2873e-05
7.29848e-06
-1.21808e-05
8.51848e-06
-1.12068e-05
9.60859e-06
-9.9655e-06
1.05438e-05
-8.47786e-06
1.13018e-05
-6.77224e-06
1.18636e-05
-4.88538e-06
1.22138e-05
-2.86093e-06
1.23407e-05
-7.50262e-07
1.22374e-05
1.39116e-06
1.19029e-05
3.50577e-06
1.13434e-05
5.53337e-06
1.05726e-05
7.41507e-06
9.61163e-06
9.09639e-06
8.4877e-06
1.05272e-05
7.23307e-06
1.16581e-05
5.88201e-06
1.24348e-05
4.46731e-06
1.27876e-05
3.01342e-06
1.26208e-05
1.51723e-06
1.17683e-05
9.92353e-06
-2.50308e-06
1.48666e-05
-5.10675e-06
1.91439e-05
-6.46605e-06
1.55911e-05
-7.1995e-06
1.16536e-05
-7.45135e-06
7.0986e-06
-7.33128e-06
2.82596e-06
-6.93872e-06
-8.7378e-07
-6.34054e-06
-3.9739e-06
-5.5551e-06
-6.61184e-06
-4.60425e-06
-8.81266e-06
-3.5104e-06
-1.06354e-05
-2.29094e-06
-1.21217e-05
-9.70931e-07
-1.32788e-05
4.23606e-07
-1.41203e-05
1.86567e-06
-1.46451e-05
3.32477e-06
-1.48445e-05
4.77137e-06
-1.47225e-05
6.17559e-06
-1.42773e-05
7.50621e-06
-1.35114e-05
8.73393e-06
-1.24345e-05
9.83069e-06
-1.10623e-05
1.0771e-05
-9.41814e-06
1.15325e-05
-7.53375e-06
1.20963e-05
-5.44924e-06
1.24473e-05
-3.21195e-06
1.25742e-05
-8.77155e-07
1.24702e-05
1.49519e-06
1.21343e-05
3.84164e-06
1.15724e-05
6.09532e-06
1.07973e-05
8.19006e-06
9.82963e-06
1.00641e-05
8.69583e-06
1.1661e-05
7.42736e-06
1.29266e-05
6.0572e-06
1.38049e-05
4.61588e-06
1.42289e-05
3.12508e-06
1.41116e-05
1.58218e-06
1.33112e-05
1.15057e-05
-2.57725e-06
1.74439e-05
-5.50045e-06
2.20672e-05
-6.76994e-06
1.68606e-05
-7.35588e-06
1.22395e-05
-7.46626e-06
7.20897e-06
-7.22773e-06
2.58742e-06
-6.75243e-06
-1.34908e-06
-6.10949e-06
-4.61684e-06
-5.30547e-06
-7.41586e-06
-4.35031e-06
-9.76782e-06
-3.26122e-06
-1.17245e-05
-2.04999e-06
-1.3333e-05
-7.37034e-07
-1.45918e-05
6.53274e-07
-1.55107e-05
2.0954e-06
-1.60872e-05
3.55925e-06
-1.63084e-05
5.01423e-06
-1.61774e-05
6.42959e-06
-1.56926e-05
7.77259e-06
-1.48544e-05
9.01257e-06
-1.36745e-05
1.01203e-05
-1.217e-05
1.10693e-05
-1.03672e-05
1.18369e-05
-8.3013e-06
1.24039e-05
-6.01623e-06
1.27553e-05
-3.56336e-06
1.28801e-05
-1.002e-06
1.27719e-05
1.60341e-06
1.24297e-05
4.1838e-06
1.18592e-05
6.66588e-06
1.10728e-05
8.97644e-06
1.00903e-05
1.10466e-05
8.93773e-06
1.28135e-05
7.64583e-06
1.42186e-05
6.24672e-06
1.5204e-05
4.76978e-06
1.57058e-05
3.23567e-06
1.56457e-05
1.64365e-06
1.49032e-05
1.31493e-05
-2.60137e-06
2.00452e-05
-5.92638e-06
2.53922e-05
-7.03008e-06
1.79643e-05
-7.40512e-06
1.26146e-05
-7.34326e-06
7.14712e-06
-6.9703e-06
2.21445e-06
-6.40948e-06
-1.90989e-06
-5.72978e-06
-5.29654e-06
-4.92052e-06
-8.22512e-06
-3.97583e-06
-1.07125e-05
-2.90634e-06
-1.2794e-05
-1.71771e-06
-1.45216e-05
-4.24063e-07
-1.58854e-05
9.52772e-07
-1.68875e-05
2.38872e-06
-1.75231e-05
3.85417e-06
-1.77739e-05
5.3171e-06
-1.76404e-05
6.74518e-06
-1.71207e-05
8.10371e-06
-1.62129e-05
9.3599e-06
-1.49307e-05
1.04827e-05
-1.32928e-05
1.14442e-05
-1.13286e-05
1.22205e-05
-9.07765e-06
1.27922e-05
-6.58787e-06
1.3144e-05
-3.91519e-06
1.32652e-05
-1.12316e-06
1.31494e-05
1.71918e-06
1.2796e-05
4.53716e-06
1.22106e-05
7.25132e-06
1.14053e-05
9.78171e-06
1.03994e-05
1.20525e-05
9.21852e-06
1.39944e-05
7.89289e-06
1.55442e-05
6.45439e-06
1.66425e-05
4.93225e-06
1.7228e-05
3.34781e-06
1.72301e-05
1.70302e-06
1.6548e-05
1.48523e-05
-2.53976e-06
2.2585e-05
-6.35641e-06
2.92088e-05
-7.18104e-06
1.87889e-05
-7.25357e-06
1.26871e-05
-6.98611e-06
6.87966e-06
-6.46632e-06
1.69464e-06
-5.82323e-06
-2.55297e-06
-5.12409e-06
-5.99569e-06
-4.33254e-06
-9.01666e-06
-3.42204e-06
-1.1623e-05
-2.39585e-06
-1.38202e-05
-1.25273e-06
-1.56648e-05
1.39647e-09
-1.71395e-05
1.34861e-06
-1.82347e-05
2.76639e-06