/*--------------------------------*- C++ -*----------------------------------*\
  =========                 |
  \\      /  F ield         | OpenFOAM: The Open Source CFD Toolbox
   \\    /   O peration     | Website:  https://openfoam.org
    \\  /    A nd           | Version:  7
     \\/     M anipulation  |
\*---------------------------------------------------------------------------*/
FoamFile
{
    version     2.0;
    format      ascii;
    class       volVectorField;
    location    "0.4";
    object      U;
}
// * * * * * * * * * * * * * * * * * * * * * * * * * * * * * * * * * * * * * //

dimensions      [0 1 -1 0 0 0 0];

internalField   nonuniform List<vector> 
9072
(
(-0.0324768 0.0127744 0)
(-0.0568625 0.00509193 0)
(-0.0557423 -0.00373542 0)
(-0.0373497 -0.00789849 0)
(-0.0118707 -0.00939908 0)
(0.0167475 -0.00972411 0)
(0.0460243 -0.00954659 0)
(0.0747852 -0.00911322 0)
(0.102444 -0.00859063 0)
(0.128755 -0.00806047 0)
(0.153696 -0.00756381 0)
(0.177354 -0.0071201 0)
(0.199865 -0.00673543 0)
(0.22138 -0.00640795 0)
(0.242041 -0.00613155 0)
(0.261972 -0.00589805 0)
(0.281274 -0.00569838 0)
(0.300023 -0.00552326 0)
(0.318266 -0.00536352 0)
(0.336023 -0.00521016 0)
(0.353287 -0.00505422 0)
(0.370023 -0.00488667 0)
(0.386166 -0.0046981 0)
(0.401621 -0.00447846 0)
(0.416256 -0.00421668 0)
(0.429903 -0.00390016 0)
(0.442349 -0.00351408 0)
(0.453324 -0.00304012 0)
(0.462492 -0.00245358 0)
(0.46941 -0.00171608 0)
(0.473558 -0.000707314 0)
(0.473863 0.00073312 0)
(0.468568 0.00269323 0)
(0.456548 0.00521537 0)
(0.436371 0.008321 0)
(0.406216 0.0120768 0)
(0.364058 0.0164848 0)
(0.3081 0.0212801 0)
(0.237542 0.0257402 0)
(0.153646 0.028738 0)
(0.061856 0.0294243 0)
(-0.0337495 0.0324003 0)
(-0.149898 0.0268776 0)
(-0.224831 0.00402752 0)
(-0.206207 -0.0302005 0)
(-0.0852184 -0.0504984 0)
(-0.0333886 0.0286599 0)
(-0.0373807 0.00869407 0)
(-0.0294559 -0.00744133 0)
(-0.0115945 -0.01599 0)
(0.0124277 -0.0197297 0)
(0.0394565 -0.0210807 0)
(0.067454 -0.0211756 0)
(0.0952965 -0.0206125 0)
(0.122373 -0.019753 0)
(0.148402 -0.0187992 0)
(0.173306 -0.0178627 0)
(0.19712 -0.0170004 0)
(0.219935 -0.0162358 0)
(0.241863 -0.0155724 0)
(0.263016 -0.0150019 0)
(0.283494 -0.0145103 0)
(0.303378 -0.0140799 0)
(0.322727 -0.0136918 0)
(0.341579 -0.0133265 0)
(0.359942 -0.0129644 0)
(0.377801 -0.0125851 0)
(0.395115 -0.0121681 0)
(0.411812 -0.0116913 0)
(0.427793 -0.0111309 0)
(0.442924 -0.0104605 0)
(0.457033 -0.00964982 0)
(0.469906 -0.00866332 0)
(0.481276 -0.00745732 0)
(0.490814 -0.00597457 0)
(0.498121 -0.00413347 0)
(0.502688 -0.00177817 0)
(0.504201 0.00131152 0)
(0.502245 0.00530786 0)
(0.495648 0.0103348 0)
(0.483045 0.0165743 0)
(0.462806 0.0242597 0)
(0.432897 0.0335112 0)
(0.390831 0.0440669 0)
(0.33384 0.0549485 0)
(0.25973 0.0642468 0)
(0.168592 0.0699649 0)
(0.0691486 0.0750161 0)
(-0.0442229 0.0681135 0)
(-0.123671 0.0301555 0)
(-0.149639 -0.0379525 0)
(-0.0747286 -0.111835 0)
(-0.0229577 0.0409325 0)
(-0.0203377 0.00721364 0)
(-0.0107934 -0.0140737 0)
(0.00692581 -0.0254784 0)
(0.0297663 -0.0309812 0)
(0.0553722 -0.0331896 0)
(0.0820333 -0.033504 0)
(0.108725 -0.0327944 0)
(0.134867 -0.0315924 0)
(0.160174 -0.0302109 0)
(0.184545 -0.0288277 0)
(0.207985 -0.027537 0)
(0.230555 -0.0263803 0)
(0.252339 -0.0253673 0)
(0.273425 -0.0244888 0)
(0.293894 -0.0237248 0)
(0.313812 -0.0230497 0)
(0.333223 -0.022435 0)
(0.352153 -0.0218507 0)
(0.370603 -0.0212662 0)
(0.388551 -0.0206498 0)
(0.405948 -0.0199686 0)
(0.422721 -0.0191878 0)
(0.438767 -0.0182694 0)
(0.45395 -0.0171711 0)
(0.4681 -0.0158446 0)
(0.481004 -0.0142333 0)
(0.492403 -0.0122686 0)
(0.50198 -0.0098644 0)
(0.509354 -0.00690747 0)
(0.514063 -0.00324699 0)
(0.515634 0.00133904 0)
(0.513576 0.0071208 0)
(0.507129 0.014375 0)
(0.495339 0.0234209 0)
(0.477082 0.0346083 0)
(0.451059 0.0481968 0)
(0.415755 0.064075 0)
(0.369356 0.0813057 0)
(0.309931 0.0976446 0)
(0.235513 0.109989 0)
(0.152651 0.11714 0)
(0.0617346 0.107759 0)
(-0.0174422 0.059651 0)
(-0.0794505 -0.0309266 0)
(-0.0411223 -0.158892 0)
(-0.0113837 0.0483441 0)
(-0.00661335 0.00454851 0)
(0.00445805 -0.0207517 0)
(0.0223001 -0.0349021 0)
(0.0443798 -0.0421113 0)
(0.0688708 -0.0451382 0)
(0.0943644 -0.0456954 0)
(0.119972 -0.044883 0)
(0.145177 -0.043389 0)
(0.169711 -0.0416287 0)
(0.193466 -0.0398428 0)
(0.216429 -0.0381609 0)
(0.238641 -0.0366424 0)
(0.260163 -0.0353033 0)
(0.281063 -0.0341339 0)
(0.301405 -0.0331094 0)
(0.321237 -0.0321966 0)
(0.340595 -0.0313582 0)
(0.359492 -0.0305542 0)
(0.37792 -0.0297434 0)
(0.395851 -0.0288831 0)
(0.413233 -0.0279288 0)
(0.429987 -0.0268327 0)
(0.446009 -0.0255432 0)
(0.461163 -0.0240025 0)
(0.475279 -0.0221447 0)
(0.48815 -0.0198931 0)
(0.499522 -0.0171556 0)
(0.509091 -0.013819 0)
(0.516496 -0.00974056 0)
(0.521309 -0.00474006 0)
(0.523052 0.00142786 0)
(0.521218 0.00907227 0)
(0.515185 0.0185398 0)
(0.504215 0.0302183 0)
(0.487484 0.0445136 0)
(0.464113 0.061741 0)
(0.433187 0.0818656 0)
(0.393678 0.104043 0)
(0.344454 0.126026 0)
(0.283778 0.143963 0)
(0.214842 0.153793 0)
(0.140408 0.144804 0)
(0.0673847 0.0929237 0)
(-0.0100771 -0.01051 0)
(-0.00259218 -0.177762 0)
(-0.00170025 0.0499233 0)
(0.00466174 0.000846387 0)
(0.0172383 -0.0278349 0)
(0.0354981 -0.0443358 0)
(0.057189 -0.0530004 0)
(0.0808567 -0.0567565 0)
(0.105372 -0.0575546 0)
(0.130005 -0.0566805 0)
(0.154324 -0.0549538 0)
(0.178098 -0.052878 0)
(0.201225 -0.0507486 0)
(0.223685 -0.0487271 0)
(0.245501 -0.0468895 0)
(0.266719 -0.0452585 0)
(0.287389 -0.0438244 0)
(0.307557 -0.0425586 0)
(0.327261 -0.0414214 0)
(0.34652 -0.0403674 0)
(0.36534 -0.0393477 0)
(0.383705 -0.0383111 0)
(0.401581 -0.0372047 0)
(0.418911 -0.0359727 0)
(0.435613 -0.0345552 0)
(0.451582 -0.0328874 0)
(0.466681 -0.0308967 0)
(0.480744 -0.0285005 0)
(0.493568 -0.0256032 0)
(0.504908 -0.0220908 0)
(0.514473 -0.0178259 0)
(0.521922 -0.0126391 0)
(0.526859 -0.00632226 0)
(0.528833 0.00139185 0)
(0.527368 0.010838 0)
(0.521926 0.0224003 0)
(0.51192 0.0364996 0)
(0.496731 0.0535583 0)
(0.475754 0.0738929 0)
(0.448422 0.0974736 0)
(0.414157 0.123494 0)
(0.372319 0.149766 0)
(0.321674 0.172115 0)
(0.263114 0.185004 0)
(0.199462 0.177321 0)
(0.131814 0.12646 0)
(0.050095 0.0156975 0)
(0.0304341 -0.168628 0)
(0.00467205 0.0467191 0)
(0.0133192 -0.00388953 0)
(0.0278065 -0.0354482 0)
(0.0468169 -0.053841 0)
(0.0684372 -0.0636543 0)
(0.0915362 -0.0679908 0)
(0.115253 -0.0689839 0)
(0.139032 -0.0680625 0)
(0.16254 -0.0661485 0)
(0.185594 -0.0638146 0)
(0.208112 -0.0614001 0)
(0.230072 -0.0590929 0)
(0.251486 -0.0569827 0)
(0.272386 -0.0550982 0)
(0.292808 -0.0534301 0)
(0.312783 -0.0519467 0)
(0.332334 -0.0506027 0)
(0.351473 -0.0493456 0)
(0.370194 -0.0481185 0)
(0.388475 -0.0468612 0)
(0.406276 -0.0455112 0)
(0.423535 -0.0440021 0)
(0.44017 -0.042263 0)
(0.456072 -0.0402164 0)
(0.471108 -0.0377758 0)
(0.485115 -0.0348432 0)
(0.497893 -0.0313052 0)
(0.509209 -0.0270286 0)
(0.518786 -0.0218538 0)
(0.526305 -0.0155888 0)
(0.531398 -0.0080017 0)
(0.533654 0.00119385 0)
(0.532643 0.0123476 0)
(0.527901 0.0258601 0)
(0.518954 0.0421622 0)
(0.505337 0.0616708 0)
(0.486626 0.0846805 0)
(0.462463 0.111141 0)
(0.432503 0.140262 0)
(0.39633 0.169936 0)
(0.352993 0.195952 0)
(0.302057 0.211967 0)
(0.244832 0.206419 0)
(0.180679 0.159821 0)
(0.0983151 0.049012 0)
(0.0552076 -0.142906 0)
(0.00777916 0.0411172 0)
(0.0194774 -0.0101211 0)
(0.0363554 -0.0437694 0)
(0.0564258 -0.0635679 0)
(0.0782353 -0.0741996 0)
(0.100977 -0.0789324 0)
(0.124058 -0.080042 0)
(0.147101 -0.0790617 0)
(0.169881 -0.0769864 0)
(0.192272 -0.0744377 0)
(0.214216 -0.071787 0)
(0.235694 -0.069241 0)
(0.256714 -0.0669004 0)
(0.277297 -0.0647981 0)
(0.297465 -0.0629252 0)
(0.317237 -0.0612469 0)
(0.336626 -0.0597134 0)
(0.355631 -0.058266 0)
(0.37424 -0.0568402 0)
(0.392423 -0.0553682 0)
(0.410136 -0.0537783 0)
(0.427313 -0.0519946 0)
(0.443871 -0.0499356 0)
(0.4597 -0.0475121 0)
(0.47467 -0.0446248 0)
(0.48862 -0.0411612 0)
(0.501359 -0.0369922 0)
(0.512663 -0.0319665 0)
(0.522272 -0.0259061 0)
(0.529887 -0.0185992 0)
(0.535172 -0.00979523 0)
(0.537757 0.000806898 0)
(0.537261 0.0135646 0)
(0.53329 0.0288819 0)
(0.525465 0.0471853 0)
(0.513434 0.0688746 0)
(0.496899 0.0942159 0)
(0.475625 0.123137 0)
(0.449371 0.154872 0)
(0.417779 0.18742 0)
(0.37997 0.216719 0)
(0.33481 0.236107 0)
(0.281577 0.234031 0)
(0.21881 0.192667 0)
(0.136231 0.0873299 0)
(0.0735261 -0.103599 0)
(0.00884334 0.0342055 0)
(0.0237591 -0.0178936 0)
(0.0431967 -0.0529442 0)
(0.0645148 -0.0736407 0)
(0.0866886 -0.0847454 0)
(0.109232 -0.0896722 0)
(0.131812 -0.0908015 0)
(0.15423 -0.0897339 0)
(0.176367 -0.0875086 0)
(0.198157 -0.0847768 0)
(0.219569 -0.081929 0)
(0.240594 -0.0791842 0)
(0.261237 -0.0766498 0)
(0.281509 -0.0743614 0)
(0.301424 -0.0723096 0)
(0.32099 -0.0704574 0)
(0.340209 -0.0687504 0)
(0.359072 -0.0671244 0)
(0.377558 -0.0655086 0)
(0.395634 -0.0638276 0)
(0.413248 -0.0620018 0)
(0.430335 -0.0599465 0)
(0.446807 -0.0575703 0)
(0.462559 -0.0547732 0)
(0.47746 -0.0514441 0)
(0.491356 -0.0474572 0)
(0.504062 -0.0426689 0)
(0.515367 -0.0369125 0)
(0.525026 -0.0299937 0)
(0.532763 -0.0216849 0)
(0.538272 -0.0117209 0)
(0.541225 0.000208822 0)
(0.541292 0.0144636 0)
(0.538143 0.0314428 0)
(0.531479 0.05156 0)
(0.521037 0.0751935 0)
(0.506609 0.102584 0)
(0.488026 0.133649 0)
(0.465086 0.167664 0)
(0.437399 0.202769 0)
(0.404029 0.235163 0)
(0.363375 0.258274 0)
(0.313199 0.260857 0)
(0.250372 0.22588 0)
(0.165863 0.129753 0)
(0.0872711 -0.0537061 0)
(0.0091256 0.0264343 0)
(0.0268822 -0.0270897 0)
(0.0487267 -0.0630122 0)
(0.0713158 -0.0841178 0)
(0.0939294 -0.0953557 0)
(0.116375 -0.100273 0)
(0.138559 -0.101319 0)
(0.160446 -0.100127 0)
(0.18202 -0.0977532 0)
(0.203271 -0.0948602 0)
(0.224197 -0.0918466 0)
(0.244799 -0.0889364 0)
(0.265084 -0.0862396 0)
(0.285056 -0.0837928 0)
(0.304722 -0.0815855 0)
(0.324079 -0.0795779 0)
(0.343123 -0.077712 0)
(0.361836 -0.0759183 0)
(0.380191 -0.0741203 0)
(0.398148 -0.0722361 0)
(0.415655 -0.0701786 0)
(0.432641 -0.0678551 0)
(0.449021 -0.0651652 0)
(0.46469 -0.061999 0)
(0.479519 -0.0582344 0)
(0.493361 -0.0537337 0)
(0.506041 -0.0483403 0)
(0.517357 -0.0418742 0)
(0.527082 -0.0341272 0)
(0.534963 -0.0248591 0)
(0.540725 -0.0137944 0)
(0.544078 -0.000618396 0)
(0.544743 0.0150256 0)
(0.542449 0.0335265 0)
(0.536967 0.0552806 0)
(0.528109 0.0806444 0)
(0.515732 0.10984 0)
(0.499707 0.142791 0)
(0.47983 0.178838 0)
(0.45565 0.216298 0)
(0.426109 0.251705 0)
(0.389213 0.278859 0)
(0.341636 0.287101 0)
(0.278235 0.260551 0)
(0.190606 0.176442 0)
(0.0986426 0.00513008 0)
(0.00929782 0.018049 0)
(0.0293981 -0.0375055 0)
(0.0533278 -0.0739086 0)
(0.0770735 -0.0949926 0)
(0.100113 -0.106054 0)
(0.122505 -0.110774 0)
(0.144365 -0.111638 0)
(0.165799 -0.11028 0)
(0.186878 -0.107753 0)
(0.207647 -0.104714 0)
(0.228129 -0.101558 0)
(0.248339 -0.0985099 0)
(0.268284 -0.0956773 0)
(0.287967 -0.0930959 0)
(0.307385 -0.0907534 0)
(0.326532 -0.088607 0)
(0.345394 -0.0865951 0)
(0.363948 -0.0846436 0)
(0.382161 -0.0826708 0)
(0.39999 -0.0805888 0)
(0.417377 -0.078304 0)
(0.434253 -0.0757162 0)
(0.450532 -0.072717 0)
(0.466109 -0.0691873 0)
(0.480863 -0.0649949 0)
(0.49465 -0.0599917 0)
(0.507304 -0.0540097 0)
(0.518639 -0.0468572 0)
(0.528444 -0.0383148 0)
(0.536486 -0.0281324 0)
(0.542522 -0.0160285 0)
(0.546299 -0.00168826 0)
(0.547585 0.0152375 0)
(0.546166 0.0351233 0)
(0.541875 0.0583458 0)
(0.53459 0.0852417 0)
(0.524218 0.116024 0)
(0.510661 0.150636 0)
(0.493705 0.18851 0)
(0.47283 0.228171 0)
(0.446852 0.266554 0)
(0.413426 0.298037 0)
(0.3684 0.312844 0)
(0.304655 0.296475 0)
(0.213787 0.226938 0)
(0.109737 0.0720914 0)
(0.00959422 0.00912588 0)
(0.0316577 -0.0489325 0)
(0.0573073 -0.0855115 0)
(0.082013 -0.106213 0)
(0.105401 -0.116834 0)
(0.127742 -0.121193 0)
(0.149321 -0.121785 0)
(0.170358 -0.120223 0)
(0.190999 -0.117534 0)
(0.211333 -0.114359 0)
(0.231409 -0.11108 0)
(0.251251 -0.107916 0)
(0.270872 -0.104969 0)
(0.290271 -0.102273 0)
(0.309443 -0.099813 0)
(0.328375 -0.0975422 0)
(0.347047 -0.0953957 0)
(0.365431 -0.0932954 0)
(0.383489 -0.0911546 0)
(0.401175 -0.08888 0)
(0.41843 -0.0863723 0)
(0.435182 -0.0835246 0)
(0.451346 -0.080221 0)
(0.466822 -0.0763343 0)
(0.481493 -0.0717235 0)
(0.49522 -0.0662308 0)
(0.507849 -0.0596785 0)
(0.519206 -0.0518651 0)
(0.529097 -0.0425621 0)
(0.537314 -0.0315126 0)
(0.543638 -0.0184321 0)
(0.547855 -0.00300976 0)
(0.549775 0.0150919 0)
(0.549239 0.0362295 0)
(0.546136 0.0607586 0)
(0.540404 0.0889988 0)
(0.532001 0.121161 0)
(0.520855 0.157225 0)
(0.506752 0.196732 0)
(0.489129 0.238446 0)
(0.466702 0.279757 0)
(0.436847 0.315785 0)
(0.394791 0.337927 0)
(0.331564 0.333332 0)
(0.238339 0.280857 0)
(0.122345 0.147277 0)
(0.0100827 -0.000355511 0)
(0.0338567 -0.0611995 0)
(0.0608819 -0.0976827 0)
(0.086322 -0.117701 0)
(0.109949 -0.127668 0)
(0.132214 -0.131533 0)
(0.153531 -0.13178 0)
(0.17421 -0.12998 0)
(0.194455 -0.12712 0)
(0.214391 -0.123813 0)
(0.234087 -0.120425 0)
(0.253581 -0.117161 0)
(0.272886 -0.114119 0)
(0.292004 -0.111326 0)
(0.310926 -0.108762 0)
(0.329634 -0.106379 0)
(0.348104 -0.104108 0)
(0.366304 -0.101867 0)
(0.384192 -0.0995641 0)
(0.401718 -0.0971021 0)
(0.418822 -0.0943759 0)
(0.435434 -0.091273 0)
(0.451469 -0.0876708 0)
(0.466831 -0.0834348 0)
(0.481406 -0.0784159 0)
(0.495065 -0.0724482 0)
(0.507663 -0.0653458 0)
(0.51904 -0.056899 0)
(0.529021 -0.0468724 0)
(0.537417 -0.0350042 0)
(0.544038 -0.0210102 0)
(0.548701 -0.00458723 0)
(0.551258 0.0145867 0)
(0.5516 0.036847 0)
(0.549672 0.0625264 0)
(0.545468 0.0919293 0)
(0.538998 0.125271 0)
(0.530227 0.162577 0)
(0.518963 0.203511 0)
(0.504638 0.247097 0)
(0.485935 0.291225 0)
(0.460072 0.331881 0)
(0.421886 0.361916 0)
(0.360689 0.370515 0)
(0.267177 0.337817 0)
(0.138439 0.232194 0)
(0.0107787 -0.0104593 0)
(0.036086 -0.0741735 0)
(0.064188 -0.110291 0)
(0.0901467 -0.129378 0)
(0.113901 -0.138521 0)
(0.136051 -0.141789 0)
(0.15711 -0.141633 0)
(0.177454 -0.139564 0)
(0.197329 -0.136524 0)
(0.21689 -0.133089 0)
(0.236224 -0.129602 0)
(0.255379 -0.126252 0)
(0.274373 -0.123128 0)
(0.293207 -0.120251 0)
(0.311869 -0.117596 0)
(0.330341 -0.115112 0)
(0.348593 -0.112725 0)
(0.36659 -0.110349 0)
(0.384287 -0.10789 0)
(0.401633 -0.105246 0)
(0.418567 -0.102306 0)
(0.435017 -0.0989525 0)
(0.450904 -0.0950582 0)
(0.466132 -0.0904814 0)
(0.480596 -0.0850661 0)
(0.494174 -0.0786394 0)
(0.506732 -0.0710084 0)
(0.518122 -0.0619576 0)
(0.528188 -0.0512458 0)
(0.536763 -0.0386086 0)
(0.543681 -0.0237642 0)
(0.54879 -0.0064205 0)
(0.551977 0.0137251 0)
(0.553181 0.0369829 0)
(0.552402 0.0636612 0)
(0.549691 0.0940492 0)
(0.545115 0.12837 0)
(0.538692 0.166699 0)
(0.530278 0.208828 0)
(0.519357 0.254048 0)
(0.504675 0.300768 0)
(0.483465 0.345931 0)
(0.450492 0.384083 0)
(0.393599 0.406951 0)
(0.303661 0.397209 0)
(0.16065 0.329585 0)
(0.0116799 -0.0212667 0)
(0.0383665 -0.0877455 0)
(0.0673001 -0.123224 0)
(0.0935966 -0.14117 0)
(0.117379 -0.149359 0)
(0.139375 -0.151953 0)
(0.160171 -0.151348 0)
(0.180188 -0.148988 0)
(0.199707 -0.145758 0)
(0.218904 -0.142196 0)
(0.237884 -0.138617 0)
(0.256701 -0.135192 0)
(0.275379 -0.131998 0)
(0.293919 -0.129048 0)
(0.312309 -0.126313 0)
(0.330526 -0.123736 0)
(0.34854 -0.121241 0)
(0.366311 -0.118738 0)
(0.383794 -0.116127 0)
(0.400935 -0.113304 0)
(0.417673 -0.110155 0)
(0.433938 -0.106557 0)
(0.449651 -0.102378 0)
(0.464725 -0.0974695 0)
(0.479057 -0.0916704 0)
(0.492536 -0.0848016 0)
(0.505036 -0.0766653 0)
(0.516428 -0.0670408 0)
(0.52657 -0.0556834 0)
(0.535317 -0.0423271 0)
(0.542525 -0.0266946 0)
(0.548069 -0.00850745 0)
(0.551869 0.0125133 0)
(0.55391 0.036649 0)
(0.554242 0.0641801 0)
(0.552977 0.095379 0)
(0.550248 0.130476 0)
(0.54614 0.169596 0)
(0.540591 0.212655 0)
(0.533197 0.259197 0)
(0.522881 0.308142 0)
(0.507125 0.357409 0)
(0.481054 0.403422 0)
(0.43163 0.440976 0)
(0.351769 0.458128 0)
(0.192746 0.445148 0)
(0.0127892 -0.0328126 0)
(0.0406756 -0.10181 0)
(0.0702492 -0.136381 0)
(0.0967525 -0.153017 0)
(0.120491 -0.160153 0)
(0.1423 -0.162013 0)
(0.16282 -0.160923 0)
(0.182508 -0.158253 0)
(0.201671 -0.154826 0)
(0.220505 -0.151137 0)
(0.239128 -0.147471 0)
(0.257601 -0.143979 0)
(0.275952 -0.140725 0)
(0.294182 -0.137712 0)
(0.31228 -0.134906 0)
(0.33022 -0.132244 0)
(0.34797 -0.129647 0)
(0.365489 -0.127021 0)
(0.382729 -0.124265 0)
(0.399636 -0.121268 0)
(0.416149 -0.117914 0)
(0.432198 -0.114077 0)
(0.44771 -0.10962 0)
(0.462601 -0.10439 0)
(0.476776 -0.098221 0)
(0.490131 -0.0909282 0)
(0.502553 -0.0823105 0)
(0.513926 -0.0721442 0)
(0.524128 -0.0601818 0)
(0.533033 -0.0461568 0)
(0.540519 -0.0297971 0)
(0.54648 -0.0108405 0)
(0.550868 0.0109641 0)
(0.553707 0.035864 0)
(0.5551 0.0641077 0)
(0.555221 0.0959469 0)
(0.554275 0.131616 0)
(0.552433 0.171283 0)
(0.549742 0.214969 0)
(0.545971 0.262445 0)
(0.540337 0.313082 0)
(0.530843 0.365707 0)
(0.513507 0.41862 0)
(0.475639 0.470023 0)
(0.416169 0.518929 0)
(0.239553 0.580982 0)
(0.0140978 -0.0450499 0)
(0.0429655 -0.116299 0)
(0.0730334 -0.149685 0)
(0.09967 -0.164865 0)
(0.123323 -0.170869 0)
(0.144921 -0.171949 0)
(0.165152 -0.170345 0)
(0.184503 -0.167347 0)
(0.203304 -0.163715 0)
(0.221768 -0.159898 0)
(0.240024 -0.156148 0)
(0.258142 -0.152595 0)
(0.27615 -0.149287 0)
(0.294053 -0.146218 0)
(0.311836 -0.143347 0)
(0.329475 -0.140606 0)
(0.346935 -0.137912 0)
(0.364173 -0.135168 0)
(0.38114 -0.132269 0)
(0.397782 -0.129102 0)
(0.414037 -0.125548 0)
(0.42984 -0.121477 0)
(0.445119 -0.11675 0)
(0.459797 -0.11121 0)
(0.473785 -0.104685 0)
(0.486988 -0.0969875 0)
(0.499306 -0.0879141 0)
(0.510637 -0.0772399 0)
(0.520878 -0.0647157 0)
(0.529923 -0.0500745 0)
(0.537665 -0.03305 0)
(0.544021 -0.0133977 0)
(0.548964 0.00910149 0)
(0.552554 0.034655 0)
(0.554946 0.0634723 0)
(0.556379 0.095779 0)
(0.557135 0.131807 0)
(0.557481 0.171754 0)
(0.557598 0.215724 0)
(0.557473 0.263655 0)
(0.556718 0.315258 0)
(0.554108 0.370056 0)
(0.547112 0.427849 0)
(0.525743 0.489854 0)
(0.496215 0.569467 0)
(0.306788 0.765575 0)
(0.0165971 -0.00415444 0)
(0.00319458 0.00900549 0)
(-0.0456324 0.0125623 0)
(-0.087905 0.011403 0)
(-0.121926 0.0083784 0)
(-0.144574 0.00481221 0)
(-0.155533 0.00124412 0)
(-0.155953 -0.00163127 0)
(-0.147368 -0.00406864 0)
(-0.132094 -0.00595745 0)
(-0.11116 -0.00745671 0)
(-0.0857365 -0.00869205 0)
(-0.0567218 -0.00965945 0)
(-0.0249413 -0.0103835 0)
(0.00878664 -0.0108652 0)
(0.0436761 -0.0110691 0)
(0.0788402 -0.010982 0)
(0.11336 -0.0106097 0)
(0.146325 -0.00996241 0)
(0.176853 -0.00906361 0)
(0.20412 -0.00793797 0)
(0.227381 -0.00661532 0)
(0.246 -0.00513872 0)
(0.259479 -0.00355518 0)
(0.267507 -0.00186899 0)
(0.269755 -0.000107533 0)
(0.265873 0.00149174 0)
(0.256559 0.00298842 0)
(0.242286 0.00429614 0)
(0.223475 0.00542659 0)
(0.200613 0.00638639 0)
(0.174241 0.00716398 0)
(0.144988 0.00773503 0)
(0.113654 0.00804528 0)
(0.0812745 0.00797862 0)
(0.0500317 0.00718443 0)
(0.0215394 0.00541932 0)
(0.00397309 0.00302726 0)
(0.00364135 -0.00499626 0)
(-0.0170978 0.0223718 0)
(-0.0659835 0.0282346 0)
(-0.106794 0.0249244 0)
(-0.136741 0.0180022 0)
(-0.155217 0.010526 0)
(-0.16218 0.00337182 0)
(-0.160258 -0.00265004 0)
(-0.150373 -0.00766127 0)
(-0.134129 -0.0117315 0)
(-0.112363 -0.0149981 0)
(-0.0862746 -0.0176593 0)
(-0.0567766 -0.0197457 0)
(-0.0246049 -0.0212815 0)
(0.00938124 -0.022298 0)
(0.044404 -0.0227498 0)
(0.0796577 -0.0226003 0)
(0.114279 -0.0218591 0)
(0.147452 -0.0205369 0)
(0.178367 -0.0186668 0)
(0.206222 -0.0162975 0)
(0.230291 -0.0134849 0)
(0.249921 -0.0103112 0)
(0.264567 -0.00687561 0)
(0.273839 -0.00326185 0)
(0.277588 0.000406551 0)
(0.276016 0.00402326 0)
(0.26893 0.00743319 0)
(0.256408 0.0105789 0)
(0.238773 0.0134422 0)
(0.216465 0.0159889 0)
(0.190026 0.0181654 0)
(0.160116 0.01989 0)
(0.127583 0.0210164 0)
(0.0934711 0.0212566 0)
(0.0598271 0.0199258 0)
(0.0272392 0.0160694 0)
(0.00665253 0.00846493 0)
(-0.00746203 -0.000419312 0)
(-0.0347704 0.0380178 0)
(-0.0784553 0.0452402 0)
(-0.115414 0.0389448 0)
(-0.141724 0.0273284 0)
(-0.157826 0.0152196 0)
(-0.163213 0.00395625 0)
(-0.160256 -0.00557588 0)
(-0.149549 -0.0134722 0)
(-0.132847 -0.0199408 0)
(-0.110849 -0.0251647 0)
(-0.0847169 -0.0293759 0)
(-0.055353 -0.0326655 0)
(-0.0234406 -0.0350774 0)
(0.0101532 -0.0366589 0)
(0.0446685 -0.0373682 0)
(0.079361 -0.0371555 0)
(0.113411 -0.0360236 0)
(0.146066 -0.0339862 0)
(0.176578 -0.0310767 0)
(0.204183 -0.0273553 0)
(0.228189 -0.0228975 0)
(0.247962 -0.0178165 0)
(0.262948 -0.0122588 0)
(0.272713 -0.0063913 0)
(0.277046 -0.000427807 0)
(0.27587 0.00554764 0)
(0.269141 0.0112776 0)
(0.25701 0.0166611 0)
(0.239782 0.0216031 0)
(0.217908 0.0260128 0)
(0.19196 0.0297859 0)
(0.16263 0.0327805 0)
(0.130783 0.0347668 0)
(0.0974201 0.0353237 0)
(0.0643189 0.0335713 0)
(0.0314185 0.0277949 0)
(0.00950588 0.0159571 0)
(-0.0179997 0.0118935 0)
(-0.0482086 0.0543937 0)
(-0.0884179 0.0610134 0)
(-0.122272 0.0518322 0)
(-0.145696 0.0358046 0)
(-0.159649 0.0193874 0)
(-0.163548 0.00420223 0)
(-0.159548 -0.0086878 0)
(-0.148141 -0.0194065 0)
(-0.131059 -0.0282287 0)
(-0.108913 -0.0353753 0)
(-0.0828168 -0.0411127 0)
(-0.053641 -0.0455922 0)
(-0.0220314 -0.0488614 0)
(0.0111466 -0.0509775 0)
(0.0451572 -0.0519031 0)
(0.079298 -0.0515852 0)
(0.112779 -0.0500313 0)
(0.144894 -0.0472621 0)
(0.174938 -0.0433101 0)
(0.202183 -0.0382502 0)
(0.225969 -0.0321775 0)
(0.245688 -0.0252314 0)
(0.260795 -0.0175983 0)
(0.270849 -0.00949707 0)
(0.275576 -0.0011732 0)
(0.274802 0.00710294 0)
(0.268508 0.015144 0)
(0.256835 0.022753 0)
(0.240086 0.0297611 0)
(0.21872 0.0360186 0)
(0.193331 0.0413671 0)
(0.164633 0.0456055 0)
(0.1335 0.0484309 0)
(0.1009 0.0493216 0)
(0.0684194 0.0472829 0)
(0.0357777 0.0400006 0)
(0.0130107 0.0247605 0)
(-0.0245876 0.0266949 0)
(-0.0583588 0.0710802 0)
(-0.0970009 0.0757811 0)
(-0.128506 0.0635356 0)
(-0.149578 0.0433538 0)
(-0.161494 0.0228276 0)
(-0.16392 0.00395255 0)
(-0.158847 -0.0121373 0)
(-0.146744 -0.0255555 0)
(-0.129263 -0.0366265 0)
(-0.106943 -0.0456317 0)
(-0.0808488 -0.0528456 0)
(-0.0518086 -0.0584706 0)
(-0.0204329 -0.0625647 0)
(0.0124164 -0.0651818 0)
(0.0460275 -0.0662957 0)
(0.0797305 -0.0658581 0)
(0.112754 -0.0638771 0)
(0.144423 -0.0603822 0)
(0.174067 -0.0554068 0)
(0.200981 -0.0490391 0)
(0.224538 -0.0413929 0)
(0.244152 -0.0326319 0)
(0.259293 -0.0229773 0)
(0.269524 -0.0126937 0)
(0.27454 -0.00208582 0)
(0.274124 0.00852024 0)
(0.268244 0.0188705 0)
(0.25702 0.0286976 0)
(0.240744 0.0377621 0)
(0.219874 0.0458516 0)
(0.19501 0.0527523 0)
(0.166879 0.0582067 0)
(0.136349 0.0618505 0)
(0.10436 0.063086 0)
(0.0723209 0.0608501 0)
(0.0403149 0.0525653 0)
(0.0158796 0.0351175 0)
(-0.0287469 0.0443258 0)
(-0.0663673 0.0885018 0)
(-0.104847 0.089968 0)
(-0.134538 0.0742932 0)
(-0.153619 0.0500193 0)
(-0.163549 0.0255166 0)
(-0.16447 0.0031467 0)
(-0.158275 -0.0159689 0)
(-0.145433 -0.0319539 0)
(-0.127509 -0.0451595 0)
(-0.104964 -0.0559404 0)
(-0.078811 -0.0645738 0)
(-0.0498316 -0.0712945 0)
(-0.018598 -0.0761774 0)
(0.0140322 -0.0792672 0)
(0.0473689 -0.0805463 0)
(0.0807694 -0.0799786 0)
(0.113471 -0.0775692 0)
(0.144821 -0.0733564 0)
(0.17417 -0.0673761 0)
(0.200831 -0.0597288 0)
(0.224199 -0.0505466 0)
(0.24371 -0.0400164 0)
(0.25885 -0.0283907 0)
(0.26919 -0.015974 0)
(0.274418 -0.00312306 0)
(0.274291 0.00978886 0)
(0.26876 0.02243 0)
(0.257924 0.0344623 0)
(0.242058 0.045574 0)
(0.221611 0.0554858 0)
(0.197182 0.0639264 0)
(0.169496 0.0705846 0)
(0.139407 0.0750438 0)
(0.107818 0.0766497 0)
(0.0759257 0.074302 0)
(0.0441808 0.0654691 0)
(0.0169652 0.0477926 0)
(-0.0315125 0.0640923 0)
(-0.0730863 0.107054 0)
(-0.112464 0.103895 0)
(-0.140588 0.084289 0)
(-0.15786 0.0558542 0)
(-0.165776 0.0274523 0)
(-0.165107 0.00175182 0)
(-0.157728 -0.020207 0)
(-0.144095 -0.0386233 0)
(-0.125683 -0.0538501 0)
(-0.102871 -0.0663214 0)
(-0.0766047 -0.0763211 0)
(-0.0476183 -0.0840926 0)
(-0.0164414 -0.0897331 0)
(0.0160753 -0.0932739 0)
(0.0492594 -0.0947005 0)
(0.0824918 -0.093994 0)
(0.115011 -0.0911548 0)
(0.146176 -0.0862269 0)
(0.17535 -0.0792525 0)
(0.201855 -0.0703431 0)
(0.2251 -0.0596499 0)
(0.244538 -0.0473826 0)
(0.25967 -0.0338235 0)
(0.270078 -0.0193127 0)
(0.275451 -0.0042516 0)
(0.275537 0.0109368 0)
(0.270273 0.025849 0)
(0.259736 0.0400752 0)
(0.244184 0.0532285 0)
(0.224053 0.0649605 0)
(0.199932 0.0749398 0)
(0.172539 0.0828047 0)
(0.142705 0.088096 0)
(0.111284 0.0901261 0)
(0.0792559 0.0878 0)
(0.0472221 0.0788017 0)
(0.0174707 0.061072 0)
(-0.0334136 0.0854649 0)
(-0.079156 0.127044 0)
(-0.120265 0.117721 0)
(-0.146731 0.0935996 0)
(-0.162189 0.0608555 0)
(-0.167972 0.0286063 0)
(-0.165579 -0.000270375 0)
(-0.156948 -0.024875 0)
(-0.142485 -0.0455788 0)
(-0.12356 -0.0627135 0)
(-0.100467 -0.0767902 0)
(-0.0740589 -0.0881084 0)
(-0.0450229 -0.0968939 0)
(-0.0138419 -0.103268 0)
(0.0186474 -0.107246 0)
(0.0517858 -0.108809 0)
(0.0849725 -0.107959 0)
(0.117442 -0.104688 0)
(0.148556 -0.099045 0)
(0.177679 -0.0910798 0)
(0.204132 -0.0809156 0)
(0.227335 -0.0687232 0)
(0.246748 -0.0547366 0)
(0.261882 -0.0392673 0)
(0.272333 -0.0226888 0)
(0.277796 -0.00544306 0)
(0.278019 0.0119986 0)
(0.272927 0.0291666 0)
(0.262586 0.0455791 0)
(0.247233 0.0607742 0)
(0.227287 0.0743318 0)
(0.203326 0.0858594 0)
(0.176054 0.0949471 0)
(0.146274 0.101103 0)
(0.114791 0.103631 0)
(0.0824064 0.101483 0)
(0.0497517 0.0926295 0)
(0.0183075 0.0745947 0)
(-0.03467 0.108138 0)
(-0.0850351 0.148803 0)
(-0.12857 0.131449 0)
(-0.152885 0.10219 0)
(-0.166329 0.0649554 0)
(-0.169756 0.028916 0)
(-0.165461 -0.00296766 0)
(-0.15551 -0.0299947 0)
(-0.140211 -0.0528242 0)
(-0.120787 -0.0717518 0)
(-0.0974452 -0.087348 0)
(-0.0709179 -0.0999422 0)
(-0.041833 -0.109715 0)
(-0.0106284 -0.116807 0)
(0.0218851 -0.12122 0)
(0.0550587 -0.122918 0)
(0.0883014 -0.121924 0)
(0.120841 -0.118224 0)
(0.152029 -0.111863 0)
(0.181222 -0.102905 0)
(0.207734 -0.091485 0)
(0.230982 -0.0777937 0)
(0.250427 -0.062092 0)
(0.265588 -0.044721 0)
(0.276071 -0.0260874 0)
(0.281578 -0.00667147 0)
(0.281863 0.0130096 0)
(0.276848 0.0324248 0)
(0.266586 0.0510222 0)
(0.251302 0.0682655 0)
(0.231395 0.083662 0)
(0.207427 0.096757 0)
(0.180089 0.107095 0)
(0.150156 0.114159 0)
(0.11839 0.117263 0)
(0.0854616 0.115436 0)
(0.0520185 0.106933 0)
(0.0192377 0.0889065 0)
(-0.0352432 0.131904 0)
(-0.0909927 0.172757 0)
(-0.13759 0.144927 0)
(-0.158755 0.109898 0)
(-0.169773 0.0680188 0)
(-0.170518 0.0282843 0)
(-0.164104 -0.00639318 0)
(-0.152782 -0.0355778 0)
(-0.136699 -0.0603425 0)
(-0.116852 -0.0809428 0)
(-0.0933652 -0.0979716 0)
(-0.0668125 -0.111804 0)
(-0.0377455 -0.12255 0)
(-0.00655927 -0.130358 0)
(0.0259786 -0.135216 0)
(0.0592288 -0.137063 0)
(0.0925979 -0.135933 0)
(0.125306 -0.131813 0)
(0.156679 -0.124733 0)
(0.186058 -0.114778 0)
(0.212737 -0.102093 0)
(0.236121 -0.0868924 0)
(0.255664 -0.0694665 0)
(0.270887 -0.0501877 0)
(0.281401 -0.029497 0)
(0.286916 -0.00791203 0)
(0.287194 0.0140062 0)
(0.282156 0.0356688 0)
(0.271853 0.056457 0)
(0.256495 0.075762 0)
(0.236466 0.0930187 0)
(0.212311 0.107709 0)
(0.184707 0.119333 0)
(0.154406 0.127356 0)
(0.122134 0.131113 0)
(0.0884864 0.129719 0)
(0.0541359 0.121686 0)
(0.0201353 0.103968 0)
(-0.0347829 0.156531 0)
(-0.0970693 0.199452 0)
(-0.147383 0.157803 0)
(-0.163719 0.116406 0)
(-0.171677 0.0698345 0)
(-0.169312 0.026576 0)
(-0.160546 -0.0106035 0)
(-0.147843 -0.0416192 0)
(-0.131118 -0.0680875 0)
(-0.111023 -0.09023 0)
(-0.0875945 -0.108604 0)
(-0.0612162 -0.12364 0)
(-0.0323303 -0.135363 0)
(-0.00129212 -0.143901 0)
(0.0311959 -0.149235 0)
(0.0645061 -0.151262 0)
(0.0980265 -0.150022 0)
(0.130966 -0.145497 0)
(0.162617 -0.137704 0)
(0.192284 -0.126747 0)
(0.219235 -0.112783 0)
(0.242848 -0.0960538 0)
(0.262562 -0.0768821 0)
(0.27789 -0.0556745 0)
(0.288443 -0.0329091 0)
(0.293938 -0.00914127 0)
(0.294144 0.0150253 0)
(0.288987 0.0389466 0)
(0.278517 0.0619406 0)
(0.262933 0.0833287 0)
(0.242609 0.102475 0)
(0.218074 0.118798 0)
(0.189989 0.131753 0)
(0.159093 0.140787 0)
(0.12609 0.145266 0)
(0.09154 0.144391 0)
(0.056168 0.136898 0)
(0.020979 0.119641 0)
(-0.0325225 0.181658 0)
(-0.102984 0.229542 0)
(-0.157742 0.169472 0)
(-0.166632 0.121189 0)
(-0.170666 0.0701124 0)
(-0.164701 0.0236209 0)
(-0.153371 -0.0156525 0)
(-0.139373 -0.0480811 0)
(-0.122289 -0.0759688 0)
(-0.102263 -0.0995061 0)
(-0.07924 -0.119135 0)
(-0.0533836 -0.135342 0)
(-0.0249805 -0.148064 0)
(0.0056575 -0.157373 0)
(0.0379161 -0.163237 0)
(0.0711853 -0.165504 0)
(0.104816 -0.1642 0)
(0.138004 -0.159307 0)
(0.169991 -0.150818 0)
(0.200031 -0.138859 0)
(0.227348 -0.123603 0)
(0.251283 -0.105318 0)
(0.271243 -0.0843671 0)
(0.286726 -0.0611948 0)
(0.297337 -0.0363203 0)
(0.302794 -0.0103385 0)
(0.302871 0.0161037 0)
(0.297501 0.042309 0)
(0.286734 0.0675353 0)
(0.270768 0.0910376 0)
(0.249964 0.112112 0)
(0.22484 0.130112 0)
(0.196046 0.144449 0)
(0.164312 0.154551 0)
(0.130338 0.159813 0)
(0.0946876 0.159518 0)
(0.0581695 0.152602 0)
(0.0217804 0.135885 0)
(-0.0271974 0.206619 0)
(-0.107922 0.264 0)
(-0.16793 0.179123 0)
(-0.165452 0.123558 0)
(-0.164515 0.0685379 0)
(-0.154499 0.019246 0)
(-0.140519 -0.0215713 0)
(-0.125489 -0.0548771 0)
(-0.108558 -0.0838403 0)
(-0.0891321 -0.108608 0)
(-0.0670595 -0.1294 0)
(-0.042275 -0.146745 0)
(-0.0148487 -0.160508 0)
(0.0149683 -0.17066 0)
(0.0466728 -0.177143 0)
(0.0796793 -0.179744 0)
(0.113286 -0.178454 0)
(0.146668 -0.173253 0)
(0.179001 -0.164106 0)
(0.209468 -0.151157 0)
(0.237233 -0.134599 0)
(0.261576 -0.114729 0)
(0.281861 -0.0919583 0)
(0.297557 -0.0667719 0)
(0.308254 -0.0397369 0)
(0.313664 -0.011491 0)
(0.313563 0.0172732 0)
(0.307889 0.0458052 0)
(0.296699 0.0733051 0)
(0.280188 0.0989648 0)
(0.258709 0.122014 0)
(0.232773 0.141746 0)
(0.203023 0.157522 0)
(0.170189 0.168752 0)
(0.134982 0.174852 0)
(0.0980078 0.175175 0)
(0.0601964 0.168841 0)
(0.0225603 0.152703 0)
(-0.0167871 0.229939 0)
(-0.11 0.304628 0)
(-0.175965 0.18585 0)
(-0.156534 0.122971 0)
(-0.14965 0.0651666 0)
(-0.135441 0.0135637 0)
(-0.119048 -0.0281378 0)
(-0.103589 -0.0616761 0)
(-0.0876718 -0.0913548 0)
(-0.0696846 -0.117203 0)
(-0.0493719 -0.139084 0)