/*--------------------------------*- C++ -*----------------------------------*\
  =========                 |
  \\      /  F ield         | OpenFOAM: The Open Source CFD Toolbox
   \\    /   O peration     | Website:  https://openfoam.org
    \\  /    A nd           | Version:  7
     \\/     M anipulation  |
\*---------------------------------------------------------------------------*/
FoamFile
{
    version     2.0;
    format      ascii;
    class       volScalarField;
    location    "0.1";
    object      alpha.water;
}
// * * * * * * * * * * * * * * * * * * * * * * * * * * * * * * * * * * * * * //

dimensions      [0 0 0 0 0 0 0];

internalField   nonuniform List<scalar> 
9072
(
1
1
1
1
1
1
1
1
1
1
1
1
1
1
1
1
1
1
1
1
1
1
1
1
1
1
1
1
0.999994
0.99995
0.999625
0.996264
0.975325
0.766527
0.2036
0.0166177
0.00486254
0.00125762
0.000284914
5.6016e-05
9.28142e-06
1.226e-06
1.16935e-07
6.7937e-09
4.77446e-10
4.90781e-10
1
1
1
1
1
1
1
1
1
1
1
1
1
1
1
1
1
1
1
1
1
1
1
1
1
1
1
0.999997
0.999973
0.999752
0.997101
0.96499
0.735687
0.284101
0.0533366
0.00939631
0.00313948
0.0009672
0.000208241
4.44023e-05
8.08088e-06
1.19267e-06
1.31569e-07
9.46103e-09
6.09241e-10
3.83669e-10
1
1
1
1
1
1
1
1
1
1
1
1
1
1
1
1
1
1
1
1
1
1
1
1
1
1
0.999999
0.999983
0.999836
0.998425
0.985511
0.85393
0.409203
0.0529149
0.00965282
0.00427826
0.00156479
0.000542154
0.000132421
2.21708e-05
4.02371e-06
6.2352e-07
7.05971e-08
5.67787e-09
3.94175e-10
2.05116e-10
1
1
1
1
1
1
1
1
1
1
1
1
1
1
1
1
1
1
1
1
1
1
1
1
1
1
0.999996
0.999898
0.998781
0.988338
0.890103
0.513577
0.110141
0.0118189
0.00364099
0.00144059
0.000495904
0.00015923
4.31462e-05
9.33791e-06
1.70988e-06
2.67327e-07
3.161e-08
2.75888e-09
2.04187e-10
9.823e-11
1
1
1
1
1
1
1
1
1
1
1
1
1
1
1
1
1
1
1
1
1
1
1
1
1
1
1
0.999495
0.991484
0.904329
0.551997
0.139405
0.0173499
0.00425785
0.00143423
0.000480584
0.00015744
4.77887e-05
1.30889e-05
3.14163e-06
6.34524e-07
1.06491e-07
1.38662e-08
1.26133e-09
9.80497e-11
4.62969e-11
1
1
1
1
1
1
1
1
1
1
1
1
1
1
1
1
1
1
1
1
1
1
1
1
1
1
1
0.998297
0.930223
0.608476
0.163624
0.0187161
0.00483437
0.00162283
0.000496697
0.000156037
4.99972e-05
1.53567e-05
4.2725e-06
1.04699e-06
2.23131e-07
4.01869e-08
5.78066e-09
6.40028e-10
5.81852e-11
2.21452e-11
1
1
1
1
1
1
1
1
1
1
1
1
1
1
1
1
1
1
1
1
1
1
1
1
1
1
1
0.977938
0.723181
0.22715
0.0216933
0.0051852
0.00185579
0.000556399
0.000166041
5.08831e-05
1.58948e-05
4.82611e-06
1.35525e-06
3.4233e-07
7.65697e-08
1.48359e-08
2.42808e-09
3.47341e-10
7.31306e-11
1.10949e-11
1
1
1
1
1
1
1
1
1
1
1
1
1
1
1
1
1
1
1
1
1
1
1
1.00001
1.00001
1
1
0.872256
0.392274
0.0392937
0.00636295
0.00212814
0.00067575
0.000197138
5.72558e-05
1.69873e-05
5.13956e-06
1.53111e-06
4.30802e-07
1.1149e-07
2.61889e-08
5.52956e-09
1.08119e-09
2.7159e-10
6.60708e-11
5.71283e-12
1
1
1
1
1
1
1
1
1
1
1
1
1
1
1
1
1
1
1
1
1
1
1
1.00002
1.00002
1.00001
0.99351
0.663649
0.128443
0.00959934
0.00284985
0.000933737
0.000266885
7.46503e-05
2.07941e-05
5.89882e-06
1.71043e-06
4.95314e-07
1.38617e-07
3.66639e-08
9.12832e-09
2.17145e-09
5.22882e-10
1.99582e-10
4.08761e-11
2.89071e-12
1
1
1
1
1
1
1
1
1
1
1
1
1
1
1
1
1
1
1
1
1
1
1
1.00003
1.00004
1.00001
0.95222
0.436772
0.0282475
0.00538942
0.00157851
0.000429451
0.000114671
3.0219e-05
7.95777e-06
2.13353e-06
5.87546e-07
1.64302e-07
4.56487e-08
1.24061e-08
3.328e-09
9.19069e-10
3.18602e-10
1.19737e-10
2.07671e-11
1.50196e-12
1
1
1
1
1
1
1
1
1
1
1
1
1
1
1
1
1
1
1
1
1
1
1
1.00005
1.00005
1.00002
0.918838
0.310534
0.0136604
0.00381076
0.00102789
0.000263663
6.45965e-05
1.53779e-05
3.64697e-06
8.8526e-07
2.23698e-07
5.8773e-08
1.58197e-08
4.42823e-09
1.31788e-09
4.18129e-10
1.91112e-10
6.04979e-11
1.0244e-11
8.07759e-13
1
1
1
1
1
1
1
1
1
1
1
1
1
1
1
1
1
1
1
1
1
1
1
1.00006
1.00006
1.00003
0.911012
0.288725
0.0117494
0.00314534
0.000803692
0.000192423
4.33511e-05
9.34633e-06
1.97905e-06
4.25251e-07
9.57034e-08
2.30146e-08
5.90899e-09
1.72909e-09
5.64875e-10
2.34649e-10
9.94855e-11
2.78994e-11
5.09978e-12
4.52449e-13
1
1
1
1
1
1
1
1
1
1
1
1
1
1
1
1
1
1
1
1
1
1
1
1.00004
1.00004
1.00005
0.917939
0.29615
0.0105317
0.00270868
0.000662011
0.000150832
3.20433e-05
6.42159e-06
1.24021e-06
2.38107e-07
4.73043e-08
1.01639e-08
2.45469e-09
7.5325e-10
2.68014e-10
1.26709e-10
4.53012e-11
1.26366e-11
2.57634e-12
2.66059e-13
1
1
1
1
1
1
1
1
1
1
1
1
1
1
1
1
1
1
1
1
1
1
1
1.00002
1.00002
1.00001
0.908932
0.269238
0.00900392
0.00224291
0.000532152
0.000118012
2.43203e-05
4.67903e-06
8.53075e-07
1.51133e-07
2.7078e-08
5.19821e-09
1.19442e-09
3.55741e-10
1.4981e-10
6.07078e-11
1.94468e-11
5.74193e-12
1.32319e-12
1.65637e-13
1
1
1
1
1
1
1
1
1
1
1
1
1
1
1
1
1
1
1
1
1
1
1
1
1
1
0.888666
0.226792
0.00745237
0.00180347
0.000417715
9.09585e-05
1.84373e-05
3.48286e-06
6.17516e-07
1.04758e-07
1.76029e-08
3.06535e-09
6.70116e-10
1.8706e-10
8.21552e-11
2.78423e-11
8.45067e-12
2.64498e-12
6.98601e-13
1.09186e-13
1
1
1
1
1
1
1
1
1
1
1
1
1
1
1
1
1
1
1
1
1
1
1
1
1
1
0.868278
0.191444
0.00608792
0.00143106
0.000324028
6.96084e-05
1.39992e-05
2.62559e-06
4.61434e-07
7.71184e-08
1.25308e-08
2.04041e-09
4.25173e-10
1.05017e-10
4.25072e-11
1.25801e-11
3.54674e-12
1.15729e-12
3.59294e-13
6.6081e-14
1.41438e-39
2.861e-39
6.28159e-39
6.19865e-40
1.79516e-41
8.18979e-43
3.78083e-44
1.82122e-45
9.01557e-47
4.53811e-48
2.50336e-49
2.66358e-50
1.7461e-51
8.59689e-53
4.1943e-54
1.98698e-55
9.06862e-57
3.97204e-58
1.66303e-59
6.6309e-61
2.50842e-62
8.9672e-64
3.01632e-65
9.50224e-67
2.78886e-68
7.58049e-70
1.89501e-71
4.32016e-73
8.88752e-75
1.62764e-76
2.60593e-78
3.55715e-80
3.99227e-82
3.48552e-84
2.16452e-86
8.16077e-89
1.29994e-91
3.75692e-92
2.79496e-39
5.81746e-37
5.30658e-37
6.60972e-38
3.7172e-40
1.79266e-41
8.18376e-43
3.78011e-44
1.82139e-45
9.01557e-47
2.00084e-47
2.42367e-48
1.37285e-49
6.52905e-51
3.10976e-52
1.43989e-53
6.418e-55
2.74529e-56
1.12309e-57
4.37746e-59
1.61938e-60
5.66316e-62
1.8642e-63
5.74949e-65
1.6527e-66
4.40078e-68
1.07767e-69
2.40562e-71
4.84099e-73
8.65697e-75
1.34932e-76
1.7839e-78
1.92213e-80
1.58428e-82
8.95765e-85
2.79024e-87
2.7189e-90
3.75692e-92
6.90097e-37
5.29221e-35
3.75553e-35
3.69783e-36
3.24799e-38
1.56288e-39
7.07568e-41
3.23987e-42
1.53613e-43
7.4827e-45
8.21674e-46
8.43851e-47
4.55518e-48
2.05025e-49
9.22766e-51
4.03979e-52
1.70361e-53
6.89453e-55
2.66867e-56
9.84326e-58
3.44658e-59
1.14111e-60
3.55723e-62
1.03928e-63
2.83079e-65
7.14432e-67
1.65847e-68
3.50963e-70
6.69488e-72
1.13455e-73
1.67471e-75
2.09375e-77
2.12553e-79
1.63237e-81
8.23234e-84
2.99563e-86
5.05462e-89
2.69847e-90
5.92974e-35
2.82897e-33
1.64554e-33
1.35853e-34
1.51048e-36
7.18596e-38
3.19864e-39
1.43159e-40
6.5808e-42
3.09379e-43
2.18095e-44
2.01984e-45
9.85998e-47
4.15307e-48
1.75341e-49
7.19692e-51
2.84729e-52
1.08135e-53
3.92826e-55
1.36002e-56
4.47054e-58
1.38976e-59
4.06861e-61
1.11651e-62
2.85697e-64
6.77463e-66
1.47775e-67
2.93867e-69
5.26775e-71
8.38782e-73
1.16291e-74
1.3638e-76
1.29313e-78
9.11131e-81
5.46421e-83
2.34374e-85
4.76541e-88
5.5294e-89
3.13939e-33
1.05882e-31
5.21456e-32
3.73423e-33
4.77904e-35
2.2438e-36
9.68647e-38
4.14796e-39
1.79433e-40
7.81784e-42
4.44708e-43
3.7136e-44
1.63786e-45
6.46218e-47
2.55432e-48
9.80853e-50
3.63198e-51
1.29136e-52
4.39245e-54
1.42399e-55
4.38338e-57
1.27617e-58
3.49912e-60
8.99372e-62
2.15549e-63
4.78719e-65
9.77954e-67
1.82109e-68
3.05606e-70
4.55332e-72
5.90043e-74
6.44838e-76
5.63717e-78
4.48094e-80
2.86056e-82
1.26036e-84
2.90901e-87
5.29038e-88
1.16281e-31
3.03216e-30
1.29236e-30
8.2338e-32
1.0449e-33
4.42125e-35
1.83229e-36
7.58965e-38
3.15018e-39
1.33425e-40
7.64034e-42
5.59085e-43
2.28147e-44
8.47654e-46
3.1391e-47
1.1287e-48
3.91408e-50
1.30345e-51
4.15253e-53
1.26083e-54
3.63475e-56
9.90936e-58
2.54397e-59
6.12098e-61
1.37288e-62
2.85238e-64
5.44823e-66
9.47862e-68
1.48433e-69
2.05949e-71
2.47417e-73
2.53662e-75
2.46781e-77
1.9875e-79
1.24887e-81
5.52515e-84
1.3831e-86
3.25454e-87
3.27569e-30
7.00221e-29
2.62421e-29
1.51726e-30
1.73172e-32
7.2898e-34
2.97605e-35
1.20212e-36
4.82636e-38
1.98189e-39
1.16638e-40
7.50621e-42
2.84105e-43
9.97791e-45
3.47313e-46
1.17269e-47
3.81791e-49
1.19347e-50
3.56831e-52
1.01655e-53
2.74877e-55
7.02653e-57
1.69057e-58
3.80978e-60
7.99683e-62
1.5532e-63
2.76919e-65
4.4866e-67
6.51905e-69
8.353e-71
1.03844e-72
1.13526e-74
1.06348e-76
8.27324e-79
5.07617e-81
2.2201e-83
5.78372e-86
1.54487e-86
7.45568e-29
1.34764e-27
4.49655e-28
2.39274e-29
3.11458e-31
1.06065e-32
4.30388e-34
1.7098e-35
6.69251e-37
2.68797e-38
1.64724e-39
9.31881e-41
3.28294e-42
1.09577e-43
3.60269e-45
1.14741e-46
3.52131e-48
1.03707e-49
2.91977e-51
7.82807e-53
1.99074e-54
4.78208e-56
1.08012e-57
2.28208e-59
4.48294e-61
8.12826e-63
1.34722e-64
2.10565e-66
3.10976e-68
4.14856e-70
4.93741e-72
5.16317e-74
4.64569e-76
3.48771e-78
2.07702e-80
8.87515e-83
2.32278e-85
6.41046e-86
1.43949e-27
2.20408e-26
6.62892e-27
3.28828e-28
4.86513e-30
1.38176e-31
5.62847e-33
2.22055e-34
8.55149e-36
3.39286e-37
2.19844e-38
1.09405e-39
3.60492e-41
1.15114e-42
3.59783e-44
1.08723e-45
3.16221e-47
8.81746e-49
2.34805e-50
5.94808e-52
1.42748e-53
3.23113e-55
6.86278e-57
1.35937e-58
2.55571e-60
4.65367e-62
7.84767e-64
1.21547e-65
1.71753e-67
2.19352e-69
2.50286e-71
2.5137e-73
2.17693e-75
1.57666e-77
9.07913e-80
3.75837e-82
9.60057e-85
2.54687e-85
2.4671e-26
3.08427e-25
8.52251e-26
3.98501e-27
6.55282e-29
1.62289e-30
6.70402e-32
2.65397e-33
1.02395e-34
4.76581e-36
3.05424e-37
1.21815e-38
3.81588e-40
1.17578e-41
3.52072e-43
1.01683e-44
2.82158e-46
7.49421e-48
1.89789e-49
4.56405e-51
1.03745e-52
2.21812e-54
4.74677e-56
9.58074e-58
1.80473e-59
3.16271e-61
5.12811e-63
7.6454e-65
1.04031e-66
1.28036e-68
1.40911e-70
1.36616e-72
1.14286e-74
7.99702e-77
4.44598e-79
1.77303e-81
4.31508e-84
1.04056e-84
3.9435e-25
3.66671e-24
9.67903e-25
4.30015e-26
7.71803e-28
1.71874e-29
7.26865e-31
2.91755e-32
1.14739e-33
6.6556e-35
3.88362e-36
1.2836e-37
3.9104e-39
1.17207e-40
3.39331e-42
9.44816e-44
2.5214e-45
6.42563e-47
1.55736e-48
3.57529e-50
8.34501e-52
1.851e-53
3.8597e-55
7.54944e-57
1.37979e-58
2.34584e-60
3.69086e-62
5.3413e-64
7.05778e-66
8.43851e-68
9.02457e-70
8.50186e-72
6.9065e-74
4.68509e-76
2.51668e-78
9.64232e-81
2.21267e-83
4.63624e-84
6.27304e-24
3.65986e-23
9.92177e-24
4.16802e-25
7.93149e-27
2.20847e-28
7.67241e-30
3.49736e-31
1.72698e-32
8.15605e-34
3.97427e-35
1.27934e-36
3.87369e-38
1.13939e-39
3.2234e-41
8.74111e-43
2.26483e-44
5.58089e-46
1.34965e-47
3.27794e-49
7.55321e-51
1.64029e-52
3.35198e-54
6.42441e-56
1.15046e-57
1.91657e-59
2.95516e-61
4.19198e-63
5.43054e-65
6.36615e-67
6.67394e-69
6.15858e-71
4.89207e-73
3.23465e-75
1.68431e-77
6.20185e-80
1.33082e-82
2.35201e-83
1.08274e-22
3.2567e-22
9.02892e-23
3.58509e-24
7.04141e-26
2.38254e-27
9.49253e-29
4.21991e-30
1.91123e-31
9.37229e-33
3.7252e-34
1.18557e-35
3.60037e-37
1.05237e-38
2.94544e-40
7.87248e-42
2.00136e-43
4.98085e-45
1.2657e-46
3.05936e-48
6.98004e-50
1.50233e-51
3.04175e-53
5.77488e-55
1.02431e-56
1.6902e-58
2.58159e-60
3.62794e-62
4.65625e-64
5.40692e-66
5.61155e-68
5.1197e-70
4.011e-72
2.60453e-74
1.32256e-76
4.69805e-79
9.08292e-82
1.40346e-82
2.3597e-21
3.28201e-21
6.8385e-22
2.57057e-23
5.70201e-25
2.23036e-26
9.33592e-28
4.03403e-29
1.75147e-30
9.0821e-32
3.17954e-33
1.01753e-34
3.13146e-36
9.20877e-38
2.58155e-39
6.88272e-41
1.7378e-42
4.64465e-44
1.19054e-45
2.88206e-47
6.59357e-49
1.42238e-50
2.8855e-52
5.4878e-54
9.74995e-56
1.61147e-57
2.46548e-59
3.47073e-61
4.46181e-63
5.18795e-65
5.38712e-67
4.90973e-69
3.83156e-71
2.46657e-73
1.23216e-75
4.255e-78
8.24669e-81
9.90598e-82
3.7662e-20
3.1518e-20
3.47286e-21
1.38002e-22
5.33039e-24
2.23922e-25
9.61986e-27
4.09969e-28
1.75007e-29
7.06794e-31
2.48255e-32
8.22463e-34
2.59583e-35
7.78963e-37
2.21943e-38
5.98427e-40
1.5875e-41
4.33944e-43
1.12877e-44
2.7724e-46
6.43225e-48
1.40657e-49
2.89158e-51
5.57184e-53
1.00288e-54
1.67922e-56
2.60277e-58
3.71194e-60
4.83377e-62
5.69114e-64
5.97894e-66
5.50428e-68
4.32703e-70
2.79314e-72
1.38887e-74
4.72191e-77
8.52614e-80
8.42472e-81
3.33184e-19
1.12746e-19
1.04852e-20
4.36044e-22
2.26273e-23
1.15774e-24
5.63514e-26
2.58332e-27
1.07569e-28
4.18514e-30
1.5403e-31
5.36436e-33
1.76878e-34
5.52216e-36
1.6311e-37
4.54858e-39
1.20513e-40
3.3771e-42
9.02484e-44
2.2737e-45
5.40832e-47
1.21204e-48
2.55295e-50
5.0393e-52
9.28917e-54
1.59288e-55
2.52846e-57
3.69282e-59
4.92403e-61
5.93413e-63
6.37652e-65
5.99619e-67
4.80387e-69
3.14873e-71
1.58086e-73
5.38156e-76
4.1041e-80
8.89769e-80
1
1
1
1
1
1
1
1
1
1
1
1
1
1
1
1
1
1
1
1
1
1
1
1
1
1
0.797875
0.126069
0.00453119
0.000989633
0.000212315
4.40706e-05
8.69576e-06
1.61707e-06
2.83379e-07
4.71661e-08
7.56952e-09
1.24327e-09
2.53424e-10
7.38e-11
2.32719e-11
5.40994e-12
1.34046e-12
4.25502e-13
1.54069e-13
5.04859e-14
1
1
1
1
1
1
1
1
1
1
1
1
1
1
1
1
1
1
1
1
1
1
1
1
1
1
0.65236
0.0508642
0.00270638
0.000560435
0.000116951
2.46383e-05
4.85693e-06
8.97297e-07
1.5979e-07
2.72333e-08
4.48604e-09
7.96718e-10
1.615e-10
5.02897e-11
1.27598e-11
2.307e-12
4.37933e-13
1.09115e-13
3.76454e-14
1.85356e-14
1
1
1
1
1
1
1
1
1
1
1
1
1
1
1
1
1
1
1
1
1
1
1
1
1
1
0.470246
0.0153615
0.00162067
0.000311537
6.15501e-05
1.27636e-05
2.53005e-06
4.74808e-07
8.45732e-08
1.45782e-08
2.57067e-09
5.18472e-10
1.16349e-10
4.11454e-11
9.2741e-12
1.4688e-12
2.52259e-13
5.03813e-14
1.2718e-14
4.79822e-15
1
1
1
1
1
1
1
1
1
1
1
1
1
1
1
1
1
1
1
1
1
1
1
1
1
0.96145
0.303156
0.00548264
0.000955395
0.000170955
3.13451e-05
6.1949e-06
1.19959e-06
2.24651e-07
4.06574e-08
7.2894e-09
1.40353e-09
3.09825e-10
1.09827e-10
3.27334e-11
6.01875e-12
9.75937e-13
1.64805e-13
2.98713e-14
6.11134e-15
1.55111e-15
1
1
1
1
1
1
1
1
1
1
1
1
1
1
1
1
1
1
1
1
1
1
1
1
1
0.873352
0.172329
0.00327921
0.000536172
8.94638e-05
1.54858e-05
2.89677e-06
5.40255e-07
9.94821e-08
1.81434e-08
3.4017e-09
7.36694e-10
2.12887e-10
8.45466e-11
2.04245e-11
3.51366e-12
5.90964e-13
1.00439e-13
1.75294e-14
3.21564e-15
6.39727e-16
1
1
1
1
1
1
1
1
1
1
1
1
1
1
1
1
1
1
1
1
1
1
1
1
1
0.75816
0.0818624
0.00188931
0.000290378
4.52515e-05
7.4443e-06
1.31256e-06
2.33991e-07
4.20029e-08
7.7006e-09
1.55732e-09
3.79356e-10
1.61333e-10
5.21167e-11
1.04361e-11
1.82657e-12
3.14019e-13
5.35668e-14
9.16137e-15
1.58255e-15
2.83001e-16
1
1
1
1
1
1
1
1
1
1
1
1
1
1
1
1
1
1
1
1
1
1
1
1
1
0.613955
0.0302007
0.00108932
0.000158561
2.30615e-05
3.57719e-06
5.89228e-07
9.94498e-08
1.72946e-08
3.21974e-09
7.25465e-10
2.4635e-10
1.02421e-10
2.59728e-11
4.83611e-12
8.53425e-13
1.46748e-13
2.47564e-14
4.12559e-15
6.79411e-16
1.13782e-16
1
1
1
1
1
1
1
1
1
1
1
1
1
1
1
1
1
1
1
1
1
1
1
1
1
0.455292
0.00878973
0.000654666
9.08164e-05
1.2253e-05
1.76399e-06
2.68959e-07
4.2532e-08
7.13868e-09
1.39077e-09
3.4546e-10
1.63084e-10
5.44314e-11
1.13761e-11
2.07342e-12
3.63071e-13
6.1494e-14
1.01308e-14
1.63087e-15
2.55913e-16
4.04253e-17
1
1
1
1
1
1
1
1
1
1
1
1
1
1
1
1
1
1
1
1
1
1
1
1
0.976149
0.317734
0.00319866
0.000402845
5.28711e-05
6.63785e-06
8.85607e-07
1.25147e-07
1.85126e-08
3.02642e-09
6.38475e-10
2.15079e-10
9.40326e-11
2.46203e-11
4.68289e-12
8.35458e-13
1.43191e-13
2.364e-14
3.77454e-15
5.84302e-16
8.73333e-17
1.30374e-17
1
1
1
1
1
1
1
1
1
1
1
1
1
1
1
1
1
1
1
1
1
1
1
1
0.916634
0.212751
0.00204414
0.000243304
2.9446e-05
3.47178e-06
4.36672e-07
5.78481e-08
8.11189e-09
1.33733e-09
3.05504e-10
1.42507e-10
4.81972e-11
1.01682e-11
1.84369e-12
3.19524e-13
5.31468e-14
8.49716e-15
1.30949e-15
1.94615e-16
2.77405e-17
3.92498e-18
1
1
1
1
1
1
1
1
1
1
1
1
1
1
1
1
1
1
1
1
1
1
1
1
0.8474
0.132302
0.00125262
0.000140064
1.55509e-05
1.72348e-06
2.06253e-07
2.5908e-08
3.51716e-09
6.2153e-10
1.71893e-10
8.26584e-11
2.20347e-11
4.04066e-12
7.00173e-13
1.16947e-13
1.87676e-14
2.89406e-15
4.29431e-16
6.12385e-17
8.33633e-18
1.12115e-18
1
1
1
1
1
1
1
1
1
1
1
1
1
1
1
1
1
1
1
1
1
1
1
1
0.764329
0.0743942
0.000719829
7.56716e-05
7.78402e-06
8.10956e-07
9.30949e-08
1.11635e-08
1.51048e-09
2.89896e-10
1.20569e-10
4.31955e-11
9.08885e-12
1.5596e-12
2.57586e-13
4.12172e-14
6.35323e-15
9.42148e-16
1.34378e-16
1.83808e-17
2.39201e-18
3.06414e-19
1
1
1
1
1
1
1
1
1
1
1
1
1
1
1
1
1
1
1
1
1
1
1
1
0.669593
0.0360177
0.00040527
4.01693e-05
3.8121e-06
3.77868e-07
4.09075e-08
4.70108e-09
6.61618e-10
1.35758e-10
7.15507e-11
2.01577e-11
3.58914e-12
5.82789e-13
9.18726e-14
1.40396e-14
2.07174e-15
2.94751e-16
4.0352e-17
5.29189e-18
6.58688e-19
8.04667e-20
1
1
1
1
1
1
1
1
1
1
1
1
1
1
1
1
1
1
1
1
1
1
1
1
0.56655
0.0141443
0.000238198
2.23576e-05
1.95024e-06
1.81955e-07
1.81928e-08
2.00628e-09
3.07822e-10
9.4217e-11
3.81914e-11
8.36971e-12
1.35294e-12
2.09739e-13
3.1623e-14
4.6164e-15
6.51546e-16
8.88175e-17
1.16592e-17
1.46527e-18
1.74468e-19
2.03372e-20
1
1
1
1
1
1
1
1
1
1
1
1
1
1
1
1
1
1
1
1
1
1
1
1
0.460249
0.0045246
0.000148104
1.35322e-05
1.08706e-06
9.32274e-08
8.51047e-09
9.00192e-10
1.47736e-10
6.56506e-11
1.98623e-11
3.4265e-12
5.027e-13
7.3325e-14
1.05165e-14
1.46438e-15
1.97546e-16
2.57828e-17
3.24305e-18
3.90404e-19
4.44629e-20
4.94592e-21
1
1
1
1
1
1
1
1
1
1
1
1
1
1
1
1
1
1
1
1
1
1
1
0.99672
0.362637
0.00139988
9.73578e-05
8.67108e-06
6.44976e-07
5.02273e-08
4.20406e-09
4.2878e-10
7.06441e-11
3.72447e-11
9.42575e-12
1.37296e-12
1.84441e-13
2.51443e-14
3.39886e-15
4.49124e-16
5.77693e-17
7.20867e-18
8.67996e-19
1.00027e-19
1.08923e-20
1.15584e-21
1
1
1
1
1
1
1
1
1
1
1
1
1
1
1
1
1
1
1
1
1
1
1
0.963165
0.287659
0.000984422
6.75591e-05
5.40124e-06
3.74821e-07
2.69981e-08
2.11191e-09
2.17336e-10
3.68404e-11
1.93449e-11
4.00614e-12
5.12248e-13
6.53646e-14
8.38746e-15
1.06584e-15
1.33194e-16
1.62913e-17
1.93991e-18
2.23312e-19
2.46118e-20
2.56075e-21
2.59032e-22
1
1
1
1
1
1
1
1
1
1
1
1
1
1
1
1
1
1
1
1
1
1
1
0.930099
0.223364
0.000673081
4.60628e-05
3.20306e-06
2.06573e-07
1.3764e-08
1.03384e-09
1.1369e-10
3.33204e-11
1.02981e-11
1.51643e-12
1.81261e-13
2.21047e-14
2.68288e-15
3.21639e-16
3.80317e-17
4.41894e-18
5.01461e-19
5.51206e-20
5.80414e-21
5.76495e-22
5.55311e-23
1
1
1
1
1
1
1
1
1
1
1
1
1
1
1
1
1
1
1
1
1
1
1
0.891775
0.169261
0.000433298
2.83098e-05
1.80631e-06
1.06569e-07
6.55434e-09
4.82022e-10
5.62376e-11
2.49591e-11
5.08663e-12
5.71705e-13
6.2784e-14
7.17074e-15
8.19562e-16
9.28241e-17
1.03989e-17
1.14805e-18
1.24103e-19
1.30163e-20
1.30841e-21
1.23948e-22
1.13553e-23
1
1
1
1
1
1
1
1
1
1
1
1
1
1
1
1
1
1
1
1
1
1
1
0.848702
0.124602
0.000251505
1.67454e-05
9.5917e-07
5.06184e-08
2.87263e-09
2.13496e-10
2.50748e-11
1.32003e-11
2.11564e-12
2.04799e-13
2.10071e-14
2.23402e-15
2.39147e-16
2.55468e-17
2.7115e-18
2.84492e-19
2.92934e-20
2.93059e-21
2.81048e-22
2.53718e-23
2.2077e-24
1
1
1
1
1
1
1
1
1
1
1
1
1
1
1
1
1
1
1
1
1
1
1
0.801313
0.0883754
0.000148282
9.24251e-06
4.66703e-07
2.16455e-08
1.12052e-09
9.34416e-11
2.0161e-11
6.09893e-12
7.16068e-13
6.71492e-14
6.60666e-15
6.59829e-16
6.63065e-17
6.68058e-18
6.71701e-19
6.69807e-20
6.56969e-21
6.26819e-22
5.73258e-23
4.92785e-24
4.06682e-25
1
1
1
1
1
1
1
1
1
1
1
1
1
1
1
1
1
1
1
1
1
1
1
0.750015
0.0597009
8.24279e-05
4.62468e-06
1.98147e-07
8.09666e-09
3.85078e-10
3.84494e-11
1.656e-11
2.78487e-12
2.38353e-13
2.09339e-14
1.94512e-15
1.83189e-16
1.73528e-17
1.65177e-18
1.57419e-19
1.49238e-20
1.3946e-21
1.26897e-22
1.10637e-23
9.04947e-25
7.07212e-26
1
1
1
1
1
1
1
1
1
1
1
1
1
1
1
1
1
1
1
1
1
1
1
0.695328
0.0377365
4.07245e-05
1.99176e-06
6.8744e-08
2.36961e-09
1.22294e-10
1.33042e-11
8.41229e-12
1.10364e-12
8.18332e-14
6.40645e-15
5.46064e-16
4.80285e-17
4.27924e-18
3.84773e-19
3.47671e-20
3.13455e-21
2.7915e-22
2.42259e-23
2.01309e-24
1.56555e-25
1.15657e-26
1
1
1
1
1
1
1
1
1
1
1
1
1
1
1
1
1
1
1
1
1
1
1
0.637822
0.0216611
1.62352e-05
7.0305e-07
1.82614e-08
5.33801e-10
3.65883e-11
9.7832e-12
2.88348e-12
3.63696e-13
2.70275e-14
1.90986e-15
1.4755e-16
1.19653e-17
9.95475e-19
8.42874e-20
7.21322e-21
6.18401e-22
5.24933e-23
4.34547e-24
3.4407e-25
2.54204e-26
1.77195e-27
0.999999
1
1
1
1
1
1
1
1
1
1
1
1
1
1
1
1
1
1
1
1
1
1
0.578025
0.0107164
4.38324e-06
2.11107e-07
3.81095e-09
9.73546e-11
1.09467e-11
5.65284e-12
1.04893e-12
1.16947e-13
8.29743e-15
5.43878e-16
3.81555e-17
2.82867e-18
2.18147e-19
1.73195e-20
1.40122e-21
1.14178e-22
9.23939e-24
7.29668e-25
5.50372e-26
3.8594e-27
2.53306e-28
0.999997
0.999998
0.999999
1
1
1
1
1
1
1
1
1
1
1
1
1
1
1
1
1
1
1
1
0.516624
0.00409526
2.93374e-07
7.06796e-08
7.92727e-10
2.05384e-11
4.50463e-12
3.02628e-12
4.67474e-13
3.7055e-14
2.37097e-15
1.45717e-16
9.3053e-18
6.28506e-19
4.47375e-20
3.32085e-21
2.53688e-22
1.96466e-23
1.51615e-24
1.14262e-25
8.20839e-27
5.45741e-28
3.3636e-29
0.999986
0.999993
0.999997
0.999999
0.999999
1
1
1
1
1
1
1
1
1
1
1
1
1
1
1
1
1
1
0.45459
0.00107214
-7.42481e-07
3.68048e-08
2.12563e-10
3.75296e-12
2.3254e-12
2.05448e-12
2.31416e-13
1.16706e-14
6.43068e-16
3.61312e-17
2.09416e-18
1.29015e-19
8.48252e-21
5.89188e-22
4.2537e-23
3.1346e-24
2.30954e-25
1.66208e-26
1.13704e-27
7.15862e-29
4.12599e-30
0.999942
0.999968
0.999985
0.999993
0.999996
0.999998
0.999999
0.999999
0.999999
0.999999
1
1
1
1
0.999999
0.999999
0.999999
0.999999
0.999999
0.999999
0.999999
0.999999
0.999999
0.392959
0.000145403
-1.3226e-06
2.44783e-08
2.55034e-11
6.8208e-13
1.30332e-12
1.27557e-12
1.01654e-13
3.57572e-15
1.63885e-16
8.11587e-18
4.24438e-19
2.39447e-20
1.46153e-21
9.54111e-23
6.54305e-24
4.6074e-25
3.25085e-26
2.23683e-27
1.45712e-28
8.67399e-30
4.65508e-31
0.999756
0.99986
0.999932
0.999967
0.999982
0.99999
0.999993
0.999995
0.999996
0.999997
0.999997
0.999997
0.999997
0.999997
0.999997
0.999997
0.999996
0.999996
0.999995
0.999995
0.999994
0.999994
0.999994
0.331877
8.88149e-05
-6.73861e-07
1.36417e-08
-3.27402e-11
5.92337e-13
1.13472e-12
5.99772e-13
3.48403e-14
9.88724e-16
3.79388e-17
1.64156e-18
7.74637e-20
4.01566e-21
2.28258e-22
1.40365e-23
9.20103e-25
6.21044e-26
4.20018e-27
2.76958e-28
1.71984e-29
9.66618e-31
4.8075e-32
0.99898
0.999392
0.999689
0.999843
0.999911
0.999946
0.999965
0.999975
0.99998
0.999983
0.999985
0.999985
0.999985
0.999984
0.999983
0.999981
0.999979
0.999977
0.999974
0.999971
0.999968
0.999966
0.999968
0.270217
5.24649e-05
3.61668e-07
4.84057e-09
-1.01037e-11
1.10801e-12
1.12578e-12
2.04133e-13
8.86776e-15
2.3201e-16
7.7819e-18
3.01671e-19
1.30833e-20
6.3253e-22
3.38388e-23
1.9701e-24
1.22347e-25
7.82803e-27
5.02045e-28
3.16503e-29
1.86369e-30
9.84031e-32
4.51434e-33
0.995756
0.997378
0.998593
0.999256
0.999562
0.999723
0.999812
0.999863
0.99989
0.999905
0.999913
0.999916
0.999915
0.999911
0.999905
0.999896
0.999885
0.999872
0.999857
0.999842
0.999828
0.999818
0.999829
0.209923
2.87595e-05
9.52195e-08
3.86243e-10
-3.55408e-12
5.36612e-13
9.02861e-13
5.26214e-14
1.78521e-15
4.57674e-17
1.41302e-18
5.08492e-20
2.07283e-21
9.48708e-23
4.82349e-24
2.67467e-25
1.58023e-26
9.61831e-28
5.8531e-29
3.46452e-30
1.89198e-31
9.23861e-33
3.84498e-34
0.957256
0.988684
0.993661
0.996506
0.997849
0.998589
0.999011
0.999257
0.999394
0.999471
0.999511
0.999525
0.99952
0.9995
0.999466
0.999422
0.999367
0.999301
0.999228
0.999151
0.999081
0.999035
0.999093
0.158237
-1.56256e-06
-1.85187e-08
-1.52917e-10
-2.18091e-12
1.11183e-13
4.65408e-13
1.08479e-14
3.13685e-16
7.90421e-18
2.32908e-19
7.97728e-21
3.10036e-22
1.35491e-23
6.58559e-25
3.495e-26
1.97698e-27
1.15048e-28
6.66289e-30
3.71434e-31
1.89005e-32
8.43755e-34
3.08764e-35
0.415148
0.634112
0.823515
0.939946
0.984152
0.992844
0.99482
0.996006
0.996678
0.997061
0.997259
0.997326
0.997297
0.997191
0.99702
0.996795
0.996521
0.996194
0.995834
0.995461
0.995109
0.994914
0.995257
0.118317
-6.50554e-06
-2.19192e-08
-1.05687e-10
-1.61634e-13
3.22045e-14
1.32251e-13
1.86897e-15
5.0697e-17
1.25051e-18
3.56983e-20
1.17661e-21
4.3914e-23
1.84226e-24
8.59802e-26
4.38279e-27
2.37931e-28
1.32613e-29
7.3243e-31
3.86664e-32
1.84263e-33
7.55719e-35
2.45394e-36
1.21255e-05
0.0570606
0.171836
0.352362
0.545588
0.689486
0.783816
0.843074
0.877152
0.896394
0.905907
0.908507
0.90608
0.899603
0.889825
0.877263
0.862382
0.844921
0.825911
0.806377
0.787506
0.775434
0.80671
0.0769288
-6.31697e-06
-6.1473e-10
4.12052e-12
1.08788e-13
1.84172e-14
2.15437e-14
2.81452e-16
7.55504e-18
1.83377e-19
5.10151e-21
1.62743e-22
5.86477e-24
2.37369e-25
1.06844e-26
5.25037e-28
2.74383e-29
1.4684e-30
7.75102e-32
3.87947e-33
1.73256e-34
6.55401e-36
1.89842e-37
-6.81384e-19
2.94879e-22
1.88723e-20
-6.52617e-13
0.0142643
0.0624116
0.115817
0.164611
0.203867
0.23058
0.245006
0.249044
0.244955
0.234608
0.219918
0.202336
0.183553
0.164967
0.147086
0.130462
0.11603
0.105757
0.144193
0.0275248
-1.11271e-06
-5.72009e-11
7.22732e-12
6.84835e-14
6.96899e-15
2.47057e-15
3.76263e-17
1.01757e-18
2.4575e-20
6.71768e-22
2.09086e-23
7.32912e-25
2.88041e-26
1.25729e-27
5.98299e-29
3.02091e-30
1.55675e-31
7.8703e-33
3.74082e-34
1.56791e-35
5.47614e-37
1.41269e-38
-2.8687e-18
-2.36826e-16
-3.0605e-14
-6.47433e-13
-2.12534e-16
-1.27047e-14
-3.0105e-13
-6.86787e-12
-7.93575e-11
-2.49508e-10
-4.38193e-10
-5.6987e-10
-4.44292e-10
-4.42679e-10
-2.49702e-10
-1.01472e-10
-4.53416e-11
-1.21371e-11
-3.58661e-10
-5.28038e-11
-1.01935e-12
-2.09228e-12
0
0.0015109
-4.3307e-08
3.32726e-13
3.04253e-12
2.76144e-14
1.62709e-15
2.4237e-16
4.32998e-18
1.2017e-19
2.94192e-21
8.02234e-23
2.46705e-24
8.49815e-26
3.27005e-27
1.39346e-28
6.45564e-30
3.16263e-31
1.57452e-32
7.64309e-34
3.45682e-35
1.36193e-36
4.39725e-38
1.00922e-39
-1.78338e-23
-4.1386e-22
-1.27036e-19
-1.38257e-17
-9.56632e-16
-4.13153e-14
-1.16116e-12
-3.38074e-11
-4.34075e-10
-1.40086e-09
-2.44243e-09
-3.1088e-09
-2.41074e-09
-2.5488e-09
-1.43118e-09
-5.76101e-10
-2.56569e-10
-6.73135e-11
-1.38882e-11
-1.5357e-12
-3.81624e-13
-9.56591e-12
-1.88855e-10
-2.10047e-09
-1.00406e-08
4.4147e-30
4.51412e-13
5.25322e-15
2.5683e-16
1.94867e-17
4.00427e-19
1.1927e-20
3.05888e-22
8.52697e-24
2.63821e-25
9.0531e-27
3.44669e-28
1.44556e-29
6.56139e-31
3.1343e-32
1.51324e-33
7.07384e-35
3.05136e-36
1.1321e-37
3.38414e-39
6.90124e-41
-1.92334e-33
-3.11079e-32
-1.24775e-29
-1.60488e-27
-2.16751e-25
-1.79783e-22
-2.90158e-20
-2.3873e-18
-1.37828e-16
-6.15655e-15
-2.18551e-13
-5.98123e-12
-1.14886e-10
-1.2026e-09
-8.33691e-10
-3.74835e-10
-1.56597e-10
-4.14794e-11
-1.042e-11
-1.64226e-12
-1.51426e-13
-1.32736e-12
-9.11409e-12
-3.69254e-11
-5.75091e-11
3.03945e-15
2.87586e-14
2.74257e-16
2.02001e-17
9.4784e-19
2.44066e-20
9.21347e-22
2.64393e-23
7.85252e-25
2.51181e-26
8.75033e-28
3.34158e-29
1.3935e-30
6.24477e-32
2.92575e-33
1.37598e-34
6.21522e-36
2.56373e-37
8.9759e-39
2.48853e-40
4.50243e-42
4.9088e-45
6.16939e-43
6.55765e-41
0
0
0
0
-1.16637e-48
-2.42081e-49
-3.10485e-50
-2.91215e-50
-1.64319e-49
-2.26534e-48
-7.97937e-47
-4.19048e-36
-7.12981e-42
1.0721e-33
-2.01239e-31
-7.32989e-26
5.1085e-15
2.5086e-14
1.26847e-12
1.09535e-11
2.00959e-11
1.6009e-11
8.50125e-15
1.92797e-16
5.6193e-18
6.44187e-19
3.11657e-20
9.99582e-22
3.68303e-23
1.67527e-24
5.96462e-26
2.0702e-27
7.53971e-29
2.94437e-30
1.23733e-31
5.5275e-33
2.55799e-34
1.17804e-35
5.16211e-37
2.0424e-38
6.76384e-40
1.74266e-41
2.79114e-43
1.33903e-44
1.36324e-42
1.58824e-40
8.59738e-39
1.72651e-37
4.77364e-36
4.82011e-34
3.38769e-32
1.75784e-30
7.19393e-29
2.4384e-27
7.08619e-26
1.80812e-24
4.11711e-23
8.45543e-22
1.57583e-20
2.67387e-19
7.89169e-18
1.05114e-15
7.08849e-15
1.50651e-14
5.44365e-14
3.2128e-13
6.61631e-13
4.94593e-13
1.88688e-15
4.36955e-18
3.26589e-19
4.07467e-20
2.75778e-21
8.97434e-23
2.33134e-24
7.39044e-26
3.05573e-27
1.38499e-28
5.62899e-30
2.31817e-31
1.00064e-32
4.51297e-34
2.08121e-35
9.44553e-37
4.03404e-38
1.53631e-39
4.82565e-41
1.15796e-42
1.63616e-44
1.12784e-44
4.17451e-44
4.78958e-42
5.6054e-40
5.23329e-38
3.69446e-36
2.03307e-34
9.38774e-33
3.62507e-31
1.18716e-29
3.14579e-28
5.32994e-27
7.73087e-26
9.38562e-25
8.7762e-24
4.51146e-23
-5.18275e-22
2.80988e-20
3.47776e-17
4.75502e-16
1.37706e-15
1.81977e-15
1.34133e-15
2.53461e-16
1.04883e-16
1.22079e-16
1.87288e-19
1.98785e-20
3.12545e-21
2.78839e-22
9.28623e-24
2.37539e-25
6.32134e-27
1.96652e-28
7.0702e-30
3.33407e-31
1.58307e-32
7.25374e-34
3.36309e-35
1.5636e-36
7.04886e-38
2.95067e-39
1.0861e-40
3.24582e-42
7.27205e-44
9.0167e-46
1.77028e-45
1.12757e-44
1.30292e-42
-7.3995e-40
-1.06539e-37
-5.65739e-36
-2.18191e-34
-6.98551e-33
-1.89091e-31
-4.40858e-30
-9.39996e-29
-1.88171e-27
-3.37891e-26
-5.47702e-25
-8.04149e-24
-1.07421e-22
-1.28415e-21
4.78037e-21
1.06124e-18
9.07248e-18
2.2248e-17
2.85837e-17
2.2122e-17
4.8444e-18
7.52655e-19
7.77153e-20
5.60983e-21
9.28771e-22
1.90473e-22
2.32839e-23
8.06212e-25
2.16619e-26
6.09273e-28
1.79499e-29
5.74496e-31
2.12062e-32
8.7985e-34
4.53429e-35
2.25391e-36
1.07399e-37
4.8595e-39
2.00781e-40
7.17839e-42
2.04848e-43
4.29708e-45
4.6363e-47
2.33689e-47
1.74379e-45
2.37659e-43
1.26828e-41
5.37022e-40
1.89734e-38
5.68205e-37
1.47531e-35
3.3663e-34
6.78148e-33
1.22739e-31
1.99504e-30
2.87882e-29
3.73894e-28
4.39598e-27
4.66902e-26
4.47542e-25
2.24491e-22
1.62389e-20
1.0768e-19
2.42445e-19
3.05413e-19
2.48005e-19
6.4696e-20
1.10365e-20
4.207e-22
1.20076e-22
3.62935e-23
9.88875e-24
1.731e-24
6.27365e-26
1.74921e-27
5.02858e-29
1.53483e-30
5.02685e-32
1.74652e-33
6.64396e-35
2.79846e-36
1.29653e-37
6.63396e-39
3.06505e-40
1.26153e-41
4.40785e-43
1.20631e-44
2.37681e-46
2.20092e-48
3.64481e-50
-4.86354e-48
3.60451e-46
1.20902e-44
5.06553e-44
-5.86276e-41
-2.90848e-39
-8.8466e-38
-2.32904e-36
-5.04826e-35
-9.83037e-34
-1.85583e-32
-3.2322e-31
-4.99426e-30
-6.95531e-29
-8.7517e-28
-1.09386e-26
1.16778e-24
7.12377e-23
5.30279e-22
1.39316e-21
2.04034e-21
2.18682e-21
1.07415e-21
2.39315e-22
3.718e-23
2.10963e-24
1.15569e-24
4.31653e-25
1.13698e-25
4.33609e-27
1.26821e-28
3.75967e-30
1.16912e-31
3.87123e-33
1.37882e-34
5.26758e-36
2.09679e-37
8.72053e-39
3.68979e-40
1.73587e-41
7.24671e-43
2.49471e-44
6.58292e-46
1.22282e-47
9.48785e-50
-6.54286e-52
1.73238e-50
1.49385e-48
-3.2305e-46
-4.13773e-44
-1.67843e-42
-4.58775e-41
-1.07969e-39
-2.21998e-38
-4.05202e-37
-6.76541e-36
-1.07138e-34
-1.53397e-33
-2.0035e-32
-2.38881e-31
-2.62187e-30
-2.63473e-29
6.09905e-29
1.99882e-26
5.66833e-25
4.41061e-24
1.27544e-23
1.91251e-23
2e-23
8.21201e-24
1.58161e-24
2.95828e-26
2.85173e-26
1.55093e-26
6.38092e-27
2.63985e-28
8.19282e-30
2.53066e-31
8.0896e-33
2.7265e-34
9.80841e-36
3.76759e-37
1.51986e-38
6.22026e-40
2.46087e-41
9.3093e-43
3.73194e-44
1.28724e-45
3.29864e-47
5.80298e-49
3.58753e-51