/*--------------------------------*- C++ -*----------------------------------*\
  =========                 |
  \\      /  F ield         | OpenFOAM: The Open Source CFD Toolbox
   \\    /   O peration     | Website:  https://openfoam.org
    \\  /    A nd           | Version:  7
     \\/     M anipulation  |
\*---------------------------------------------------------------------------*/
FoamFile
{
    version     2.0;
    format      ascii;
    class       surfaceScalarField;
    location    "0.1";
    object      alphaPhi0.water;
}
// * * * * * * * * * * * * * * * * * * * * * * * * * * * * * * * * * * * * * //

dimensions      [0 3 -1 0 0 0 0];

internalField   nonuniform List<scalar> 
17936
(
2.68745e-07
-2.68745e-07
1.48749e-06
-1.21875e-06
3.09824e-06
-1.61074e-06
4.77394e-06
-1.67569e-06
6.42171e-06
-1.64778e-06
8.02178e-06
-1.60007e-06
9.57616e-06
-1.55438e-06
1.10947e-05
-1.5185e-06
1.25898e-05
-1.49515e-06
1.40748e-05
-1.48498e-06
1.55624e-05
-1.48763e-06
1.70651e-05
-1.50271e-06
1.85954e-05
-1.53024e-06
2.0166e-05
-1.57063e-06
2.17909e-05
-1.62489e-06
2.34857e-05
-1.69483e-06
2.52693e-05
-1.78356e-06
2.71646e-05
-1.89535e-06
2.92007e-05
-2.03604e-06
3.14138e-05
-2.21313e-06
3.3846e-05
-2.43217e-06
3.65371e-05
-2.69113e-06
3.95049e-05
-2.96784e-06
4.27026e-05
-3.19766e-06
4.59673e-05
-3.26468e-06
4.8957e-05
-2.98968e-06
5.093e-05
-1.97305e-06
5.09785e-05
-4.86151e-08
4.90596e-05
1.91797e-06
4.62531e-05
2.79847e-06
4.36735e-05
2.52289e-06
4.18658e-05
1.42019e-06
3.73658e-05
-1.77995e-07
1.57677e-05
-1.34833e-06
1.10144e-06
-2.3245e-07
3.61802e-07
5.14997e-08
1.01595e-07
4.46662e-08
2.37195e-08
1.86418e-08
4.79195e-09
4.87834e-09
8.42133e-10
1.08181e-09
1.22809e-10
2.27994e-10
1.39022e-11
4.20177e-11
1.14958e-12
6.1959e-12
1.00712e-13
6.58862e-13
3.02023e-14
4.23612e-14
1.10544e-15
7.89519e-07
-1.05826e-06
2.12383e-06
-2.55305e-06
3.58717e-06
-3.07409e-06
5.06953e-06
-3.15805e-06
6.53018e-06
-3.10843e-06
7.95872e-06
-3.02861e-06
9.35805e-06
-2.95371e-06
1.07366e-05
-2.89701e-06
1.21044e-05
-2.86297e-06
1.34721e-05
-2.85269e-06
1.48502e-05
-2.8657e-06
1.62491e-05
-2.90165e-06
1.76797e-05
-2.96086e-06
1.91536e-05
-3.04454e-06
2.06838e-05
-3.15501e-06
2.22851e-05
-3.29621e-06
2.39759e-05
-3.47428e-06
2.57782e-05
-3.69765e-06
2.77195e-05
-3.97735e-06
2.98324e-05
-4.32607e-06
3.21518e-05
-4.75161e-06
3.47064e-05
-5.24569e-06
3.74986e-05
-5.76007e-06
4.04705e-05
-6.16955e-06
4.34524e-05
-6.24656e-06
4.60948e-05
-5.63207e-06
4.80242e-05
-3.90245e-06
4.90462e-05
-1.07114e-06
4.89955e-05
1.96417e-06
4.78894e-05
3.86297e-06
4.60795e-05
3.87771e-06
3.9028e-05
2.08823e-06
1.87691e-05
1.46384e-07
3.56977e-06
-5.26724e-07
4.87341e-07
-2.21387e-07
1.2795e-07
1.41018e-09
4.53661e-08
5.43472e-09
1.05162e-08
4.98804e-09
2.49899e-09
2.39312e-09
5.00384e-10
7.57992e-10
8.43416e-11
2.05909e-10
1.1806e-11
4.78158e-11
1.27859e-12
9.14988e-12
1.25258e-13
1.25332e-12
2.5832e-14
1.05589e-13
3.7889e-15
1.15798e-06
-2.21624e-06
2.51035e-06
-3.9054e-06
3.85167e-06
-4.41542e-06
5.17799e-06
-4.48436e-06
6.48293e-06
-4.41337e-06
7.76578e-06
-4.31146e-06
9.03121e-06
-4.21914e-06
1.02867e-05
-4.15251e-06
1.15408e-05
-4.11705e-06
1.28022e-05
-4.11413e-06
1.40799e-05
-4.14338e-06
1.53829e-05
-4.20468e-06
1.6721e-05
-4.29888e-06
1.81045e-05
-4.42813e-06
1.95458e-05
-4.59625e-06
2.10589e-05
-4.80929e-06
2.26608e-05
-5.07624e-06
2.43723e-05
-5.40911e-06
2.62179e-05
-5.82292e-06
2.82252e-05
-6.33338e-06
3.04212e-05
-6.94769e-06
3.28236e-05
-7.64804e-06
3.54226e-05
-8.35906e-06
3.81525e-05
-8.89942e-06
4.08505e-05
-8.94456e-06
4.32086e-05
-7.99023e-06
4.48374e-05
-5.53147e-06
4.55326e-05
-1.76879e-06
4.54495e-05
2.02074e-06
4.48273e-05
4.22589e-06
4.19391e-05
3.84432e-06
2.62142e-05
1.24615e-06
4.73532e-06
4.69274e-08
7.76611e-07
-6.71931e-08
2.43749e-07
-3.82761e-08
8.15345e-08
8.55354e-10
2.63264e-08
8.98753e-10
6.1773e-09
4.49353e-10
6.2267e-10
2.11499e-10
5.04143e-11
1.07539e-10
-1.82892e-12
4.23555e-11
-2.54488e-12
1.2671e-11
-4.20476e-13
2.90248e-12
-1.16772e-14
5.04027e-13
1.23328e-14
5.73026e-14
3.35051e-15
1.37525e-06
-3.59149e-06
2.73933e-06
-5.26947e-06
3.99267e-06
-5.66877e-06
5.19827e-06
-5.68995e-06
6.37751e-06
-5.59261e-06
7.53943e-06
-5.47338e-06
8.69141e-06
-5.37112e-06
9.84102e-06
-5.30213e-06
1.09959e-05
-5.27198e-06
1.21639e-05
-5.28205e-06
1.33526e-05
-5.33207e-06
1.45701e-05
-5.42222e-06
1.58252e-05
-5.55395e-06
1.71275e-05
-5.73042e-06
1.84882e-05
-5.95695e-06
1.99204e-05
-6.24152e-06
2.14398e-05
-6.59561e-06
2.30648e-05
-7.03413e-06
2.48166e-05
-7.57478e-06
2.67179e-05
-8.2346e-06
2.87884e-05
-9.01824e-06
3.10375e-05
-9.89712e-06
3.34491e-05
-1.07707e-05
3.5959e-05
-1.14094e-05
3.84247e-05
-1.14102e-05
4.05853e-05
-1.01508e-05
4.20896e-05
-7.03649e-06
4.27489e-05
-2.44397e-06
4.27124e-05
1.85733e-06
4.09791e-05
3.86013e-06
2.9291e-05
2.28249e-06
8.24441e-06
2.33087e-07
8.9169e-07
2.99367e-11
2.71832e-07
1.14919e-09
9.26641e-08
4.01131e-10
3.09301e-08
6.01826e-10
9.62646e-09
4.72991e-10
2.55691e-09
7.12801e-11
5.07757e-10
5.70092e-12
7.21924e-11
2.16601e-11
6.80746e-12
1.1473e-11
-9.37357e-14
4.05654e-12
-1.39876e-13
1.07454e-12
-1.22659e-14
2.08645e-13
5.03715e-15
2.73124e-14
2.26851e-15
1.48533e-06
-5.07683e-06
2.84898e-06
-6.63312e-06
4.03838e-06
-6.85817e-06
5.15264e-06
-6.80421e-06
6.23236e-06
-6.67233e-06
7.29506e-06
-6.53608e-06
8.35135e-06
-6.42742e-06
9.4097e-06
-6.36048e-06
1.04777e-05
-6.33994e-06
1.15624e-05
-6.36677e-06
1.2671e-05
-6.44065e-06
1.38107e-05
-6.562e-06
1.49897e-05
-6.73286e-06
1.62166e-05
-6.95734e-06
1.75017e-05
-7.24207e-06
1.88569e-05
-7.59676e-06
2.02962e-05
-8.03487e-06
2.18355e-05
-8.57342e-06
2.34924e-05
-9.23168e-06
2.52844e-05
-1.00266e-05
2.72254e-05
-1.09593e-05
2.9319e-05
-1.19906e-05
3.15475e-05
-1.29992e-05
3.38565e-05
-1.37184e-05
3.61342e-05
-1.36879e-05
3.8171e-05
-1.21876e-05
3.96608e-05
-8.52624e-06
4.03923e-05
-3.24438e-06
3.9281e-05
1.32333e-06
2.93589e-05
2.28869e-06
9.68705e-06
4.65554e-07
1.23931e-06
-8.80839e-09
2.79556e-07
-2.92464e-09
9.36426e-08
-7.66851e-10
3.21083e-08
-1.04783e-10
1.0505e-08
3.16366e-10
3.27528e-09
2.53493e-10
8.84493e-10
8.75464e-11
1.91695e-10
2.12943e-11
3.2138e-11
8.17156e-12
3.65261e-12
3.71835e-12
9.2475e-14
1.35832e-12
-5.56134e-14
3.93739e-13
-6.93457e-15
8.78048e-14
1.93662e-15
1.26309e-14
1.33757e-15
1.52649e-06
-6.60331e-06
2.87341e-06
-7.98004e-06
4.01336e-06
-7.99813e-06
5.05907e-06
-7.84992e-06
6.06161e-06
-7.67488e-06
7.04464e-06
-7.51911e-06
8.02179e-06
-7.40457e-06
9.00278e-06
-7.34146e-06
9.9955e-06
-7.33267e-06
1.1007e-05
-7.37828e-06
1.20441e-05
-7.47771e-06
1.31135e-05
-7.63148e-06
1.42228e-05
-7.84208e-06
1.53798e-05
-8.11443e-06
1.65941e-05
-8.45628e-06
1.78759e-05
-8.87865e-06
1.92376e-05
-9.39648e-06
2.06923e-05
-1.00281e-05
2.2254e-05
-1.07934e-05
2.39354e-05
-1.17081e-05
2.57453e-05
-1.27692e-05
2.76833e-05
-1.39286e-05
2.97335e-05
-1.50494e-05
3.18562e-05
-1.58412e-05
3.39766e-05
-1.58083e-05
3.59413e-05
-1.41524e-05
3.74896e-05
-1.00745e-05
3.77051e-05
-4.20234e-06
2.98966e-05
4.44975e-07
1.09421e-05
5.6557e-07
1.34843e-06
-1.86558e-09
3.16345e-07
-8.61421e-10
1.09353e-07
-2.82619e-10
3.42102e-08
1.87363e-10
1.06303e-08
3.27046e-10
3.33826e-09
2.72352e-10
1.02901e-09
1.38798e-10
2.87345e-10
4.72829e-11
6.66959e-11
1.27994e-11
1.22606e-11
3.95075e-12
1.60862e-12
1.43076e-12
8.42475e-14
4.95658e-13
-1.73437e-14
1.52309e-13
-3.83658e-15
3.89773e-14
7.71111e-16
7.31703e-15
7.40877e-16
1.52191e-06
-8.12522e-06
2.83868e-06
-9.29682e-06
3.9389e-06
-9.09834e-06
4.9339e-06
-8.84492e-06
5.87814e-06
-8.61912e-06
6.79888e-06
-8.43985e-06
7.71218e-06
-8.31787e-06
8.62903e-06
-8.25831e-06
9.55794e-06
-8.26158e-06
1.05062e-05
-8.32649e-06
1.14804e-05
-8.45191e-06
1.24872e-05
-8.63829e-06
1.35335e-05
-8.88837e-06
1.46267e-05
-9.20767e-06
1.57752e-05
-9.60475e-06
1.69881e-05
-1.00916e-05
1.82756e-05
-1.0684e-05
1.96484e-05
-1.14009e-05
2.11169e-05
-1.22618e-05
2.26892e-05
-1.32804e-05
2.43696e-05
-1.44496e-05
2.61549e-05
-1.57139e-05
2.80324e-05
-1.69268e-05
2.99787e-05
-1.77875e-05
3.1957e-05
-1.77866e-05
3.3876e-05
-1.60714e-05
3.54997e-05
-1.16983e-05
3.17582e-05
-5.43058e-06
1.40887e-05
-2.33514e-07
1.57122e-06
3.91637e-08
3.39322e-07
1.20675e-08
1.23639e-07
3.34455e-09
3.80553e-08
1.7946e-09
1.13974e-08
9.25694e-10
3.41299e-09
4.3201e-10
1.04178e-09
1.87536e-10
3.16922e-10
7.11056e-11
8.95697e-11
2.26735e-11
2.17561e-11
6.40912e-12
4.31397e-12
1.875e-12
6.41715e-13
6.03514e-13
5.13538e-14
2.01133e-13
-3.03779e-15
6.73165e-14
6.2092e-16
2.20475e-14
3.48818e-16
5.12853e-15
4.17886e-16
1.48638e-06
-9.6116e-06
2.76453e-06
-1.0575e-05
3.83277e-06
-1.01666e-05
4.79152e-06
-9.80367e-06
5.69344e-06
-9.52105e-06
6.56725e-06
-9.31367e-06
7.43065e-06
-9.18127e-06
8.29579e-06
-9.12345e-06
9.17192e-06
-9.13771e-06
1.00666e-05
-9.2212e-06
1.09867e-05
-9.37202e-06
1.19388e-05
-9.5903e-06
1.29292e-05
-9.87885e-06
1.39651e-05
-1.02435e-05
1.50537e-05
-1.06934e-05
1.6203e-05
-1.12409e-05
1.74213e-05
-1.19023e-05
1.87166e-05
-1.26963e-05
2.0096e-05
-1.36412e-05
2.15636e-05
-1.4748e-05
2.31194e-05
-1.60054e-05
2.47581e-05
-1.73525e-05
2.64696e-05
-1.86383e-05
2.82451e-05
-1.95631e-05
3.00822e-05
-1.96238e-05
3.1958e-05
-1.79475e-05
3.29853e-05
-1.30384e-05
2.08961e-05
-6.15259e-06
2.95727e-06
-4.68071e-07
3.91677e-07
2.1727e-08
1.30367e-07
1.15508e-08
4.44778e-08
5.19122e-09
1.31576e-08
2.57935e-09
3.78473e-09
1.04519e-09
1.09435e-09
3.62975e-10
3.25163e-10
1.17915e-10
9.71992e-11
3.64277e-11
2.75026e-11
1.0615e-11
6.89517e-12
2.97361e-12
1.45933e-12
8.56778e-13
2.43666e-13
2.69152e-13
2.79547e-14
9.2287e-14
3.55683e-15
3.32937e-14
1.31032e-15
1.45067e-14
1.73043e-16
3.04787e-15
2.35235e-16
1.43025e-06
-1.10419e-05
2.66652e-06
-1.18112e-05
3.71001e-06
-1.12101e-05
4.64453e-06
-1.07382e-05
5.51772e-06
-1.03942e-05
6.35806e-06
-1.0154e-05
7.18418e-06
-1.00074e-05
8.00919e-06
-9.94846e-06
8.84303e-06
-9.97155e-06
9.69379e-06
-1.0072e-05
1.05685e-05
-1.02467e-05
1.14737e-05
-1.04955e-05
1.24158e-05
-1.0821e-05
1.34012e-05
-1.12289e-05
1.44365e-05
-1.17287e-05
1.55284e-05
-1.23328e-05
1.66835e-05
-1.30573e-05
1.79073e-05
-1.39202e-05
1.92039e-05
-1.49377e-05
2.05736e-05
-1.61177e-05
2.20128e-05
-1.74447e-05
2.35137e-05
-1.88534e-05
2.50677e-05
-2.01924e-05
2.66765e-05
-2.11718e-05
2.83619e-05
-2.13095e-05
3.01748e-05
-1.97609e-05
2.76467e-05
-1.48923e-05
8.96389e-06
-5.76099e-06
5.22762e-07
-3.6907e-07
1.69097e-07
9.41894e-09
5.84923e-08
1.04955e-08
1.70749e-08
6.4827e-09
4.73457e-09
2.8543e-09
1.28919e-09
9.65112e-10
3.5706e-10
2.79006e-10
1.0255e-10
7.51708e-11
2.99286e-11
1.96943e-11
8.42388e-12
5.13761e-12
2.16408e-12
1.37133e-12
4.87226e-13
3.92825e-13
9.15974e-14
1.2664e-13
1.35675e-14
4.74997e-14
4.11845e-15
2.08272e-14
1.01871e-15
8.70566e-15
7.87183e-17
1.59367e-15
1.33284e-16
1.3614e-06
-1.24033e-05
2.5575e-06
-1.30073e-05
3.5835e-06
-1.22361e-05
4.50404e-06
-1.16587e-05
5.36003e-06
-1.12502e-05
6.17863e-06
-1.09726e-05
6.97881e-06
-1.08076e-05
7.77433e-06
-1.0744e-05
8.5758e-06
-1.0773e-05
9.3918e-06
-1.0888e-05
1.02297e-05
-1.10847e-05
1.10962e-05
-1.1362e-05
1.19975e-05
-1.17223e-05
1.29397e-05
-1.21711e-05
1.39287e-05
-1.27176e-05
1.49701e-05
-1.33742e-05
1.60689e-05
-1.41561e-05
1.72286e-05
-1.50798e-05
1.84502e-05
-1.61593e-05
1.9731e-05
-1.73986e-05
2.1064e-05
-1.87777e-05
2.24389e-05
-2.02283e-05
2.3847e-05
-2.16004e-05
2.52948e-05
-2.26192e-05
2.68169e-05
-2.28318e-05
2.853e-05
-2.14748e-05
2.10415e-05
-1.61374e-05
1.95935e-06
-4.76733e-06
2.86879e-07
-3.3381e-07
9.5144e-08
4.3482e-10
2.75625e-08
1.44536e-08
7.28582e-09
8.45566e-09
1.83107e-09
3.15271e-09
4.59738e-10
9.08356e-10
1.19644e-10
2.26784e-10
3.28214e-11
5.28282e-11
9.29779e-12
1.19997e-11
2.59632e-12
2.76026e-12
6.8303e-13
6.72138e-13
1.63351e-13
1.89262e-13
3.52412e-14
6.43544e-14
8.44426e-15
2.47344e-14
2.73426e-15
1.32198e-14
5.37657e-16
4.4095e-15
3.79471e-17
8.30402e-16
7.6994e-17
1.2868e-06
-1.36901e-05
2.44862e-06
-1.41692e-05
3.46448e-06
-1.32519e-05
4.37977e-06
-1.2574e-05
5.22835e-06
-1.20988e-05
6.03541e-06
-1.17797e-05
6.81972e-06
-1.15919e-05
7.59549e-06
-1.15197e-05
8.37385e-06
-1.15514e-05
9.16389e-06
-1.1678e-05
9.97334e-06
-1.18941e-05
1.0809e-05
-1.21977e-05
1.16773e-05
-1.25905e-05
1.25837e-05
-1.30776e-05
1.35338e-05
-1.36677e-05
1.45321e-05
-1.43726e-05
1.55823e-05
-1.52063e-05
1.6686e-05
-1.61835e-05
1.78418e-05
-1.73151e-05
1.90443e-05
-1.86011e-05
2.02835e-05
-2.00169e-05
2.15467e-05
-2.14915e-05
2.28238e-05
-2.28775e-05
2.4122e-05
-2.39165e-05
2.54794e-05
-2.41892e-05
2.70488e-05
-2.30452e-05
1.66257e-05
-1.7569e-05
6.21598e-07
-4.39594e-06
2.03604e-07
-4.13628e-07
6.46507e-08
-6.68411e-09
1.72557e-08
2.00479e-08
4.00359e-09
1.03489e-08
8.69356e-10
3.35215e-09
1.89348e-10
8.55201e-10
4.3722e-11
1.90795e-10
1.10244e-11
3.9601e-11
2.97299e-12
7.97264e-12
8.11967e-13
1.62648e-12
2.18532e-13
3.57555e-13
5.62296e-14
9.87966e-14
1.34514e-14
3.4123e-14
4.82996e-15
1.53208e-14
1.55572e-15
7.08719e-15
2.53914e-16
2.12603e-15
1.98843e-17
4.33868e-16
4.59168e-17
1.21385e-06
-1.49039e-05
2.35003e-06
-1.53053e-05
3.36276e-06
-1.42646e-05
4.28019e-06
-1.34915e-05
5.12962e-06
-1.29482e-05
5.93392e-06
-1.2584e-05
6.71133e-06
-1.23693e-05
7.4762e-06
-1.22846e-05
8.24009e-06
-1.23153e-05
9.01251e-06
-1.24504e-05
9.80157e-06
-1.26832e-05
1.06143e-05
-1.30105e-05
1.14571e-05
-1.34332e-05
1.23354e-05
-1.39559e-05
1.32541e-05
-1.45864e-05
1.4217e-05
-1.53356e-05
1.52267e-05
-1.6216e-05
1.62831e-05
-1.72399e-05
1.7383e-05
-1.84149e-05
1.85186e-05
-1.97367e-05
1.96777e-05
-2.1176e-05
2.08453e-05
-2.26591e-05
2.20095e-05
-2.40416e-05
2.31757e-05
-2.50811e-05
2.43808e-05
-2.5394e-05
2.57745e-05
-2.44398e-05
1.50913e-05
-1.92891e-05
4.76181e-07
-4.82271e-06
1.66342e-07
-5.38783e-07
4.93168e-08
-1.24437e-08
1.18066e-08
2.4152e-08
2.43129e-09
1.12464e-08
4.6664e-10
3.30465e-09
8.86345e-11
7.78952e-10
1.76797e-11
1.61516e-10
3.92127e-12
3.09802e-11
9.74673e-13
5.69579e-12
2.56532e-13
1.04641e-12
7.15124e-14
2.08666e-13
1.99575e-14
5.55298e-14
6.80376e-15
1.82032e-14
2.55302e-15
8.87145e-15
7.12212e-16
3.29513e-15
1.23231e-16
1.00721e-15
1.14028e-17
2.28498e-16
2.8584e-17
1.15086e-06
-1.60548e-05
2.27094e-06
-1.64254e-05
3.28667e-06
-1.52804e-05
4.21232e-06
-1.44171e-05
5.06947e-06
-1.38054e-05
5.87857e-06
-1.33931e-05
6.657e-06
-1.31477e-05
7.41903e-06
-1.30467e-05
8.17644e-06
-1.30727e-05
8.93913e-06
-1.32131e-05
9.71553e-06
-1.34596e-05
1.0513e-05
-1.38079e-05
1.13377e-05
-1.4258e-05
1.21953e-05
-1.48135e-05
1.30902e-05
-1.54813e-05
1.40257e-05
-1.6271e-05
1.50031e-05
-1.71934e-05
1.60212e-05
-1.8258e-05
1.70752e-05
-1.9469e-05
1.81558e-05
-2.08173e-05
1.92489e-05
-2.22692e-05
2.0338e-05
-2.37482e-05
2.14092e-05
-2.51128e-05
2.2465e-05
-2.61352e-05
2.35381e-05
-2.64666e-05
2.47562e-05
-2.56569e-05
1.47472e-05
-2.07807e-05
4.27143e-07
-5.4905e-06
1.3782e-07
-6.39364e-07
3.66362e-08
-1.76409e-08
7.80635e-09
2.52168e-08
1.45892e-09
1.08802e-08
2.5615e-10
3.00208e-09
4.39938e-11
6.74908e-10
7.76053e-12
1.34119e-10
1.50952e-12
2.45589e-11
3.37724e-13
4.26667e-12
8.31425e-14
7.25712e-13
2.44865e-14
1.34532e-13
7.50117e-15
3.24216e-14
3.37534e-15
1.0835e-14
1.23872e-15
4.31306e-15
3.1665e-16
1.47341e-15
6.23795e-17
4.74983e-16
7.14883e-18
1.21749e-16
1.87088e-17
1.10641e-06
-1.71612e-05
2.21938e-06
-1.75384e-05
3.24303e-06
-1.6304e-05
4.18181e-06
-1.53559e-05
5.05242e-06
-1.4676e-05
5.87279e-06
-1.42134e-05
6.65923e-06
-1.39342e-05
7.42567e-06
-1.38131e-05
8.18401e-06
-1.3831e-05
8.94437e-06
-1.39735e-05
9.71549e-06
-1.42307e-05
1.05049e-05
-1.45973e-05
1.1319e-05
-1.50722e-05
1.21633e-05
-1.56577e-05
1.30418e-05
-1.63598e-05
1.39574e-05
-1.71866e-05
1.49106e-05
-1.81466e-05
1.58993e-05
-1.92467e-05
1.69175e-05
-2.04872e-05
1.79547e-05
-2.18545e-05
1.89958e-05
-2.33103e-05
2.00233e-05
-2.47756e-05
2.10219e-05
-2.61115e-05
2.19901e-05
-2.71026e-05
2.29539e-05
-2.743e-05
2.40178e-05
-2.67202e-05
1.37738e-05
-2.17694e-05
3.85739e-07
-5.61038e-06
1.11139e-07
-6.95793e-07
2.51983e-08
-1.95112e-08
4.71587e-09
2.34307e-08
8.09057e-10
9.54178e-09
1.33858e-10
2.53311e-09
2.16941e-11
5.55692e-10
3.53464e-12
1.0824e-10
6.19364e-13
1.93824e-11
1.26169e-13
3.26678e-12
2.98919e-14
5.26833e-13
9.06078e-15
9.22856e-14
4.17157e-15
1.93993e-14
1.72238e-15
6.25921e-15
5.33422e-16
1.99914e-15
1.44646e-16
6.59454e-16
3.29589e-17
2.24349e-16
4.80934e-18
6.58087e-17
1.28364e-17
1.08777e-06
-1.82489e-05
2.20122e-06
-1.86519e-05
3.23688e-06
-1.73397e-05
4.19308e-06
-1.63121e-05
5.08216e-06
-1.55651e-05
5.91958e-06
-1.50509e-05
6.72037e-06
-1.47349e-05
7.49798e-06
-1.45907e-05
8.26419e-06
-1.45972e-05
9.02929e-06
-1.47386e-05
9.80223e-06
-1.50036e-05
1.05907e-05
-1.53858e-05
1.14013e-05
-1.58828e-05
1.22394e-05
-1.64958e-05
1.31089e-05
-1.72293e-05
1.4012e-05
-1.80897e-05
1.4949e-05
-1.90836e-05
1.59168e-05
-2.02145e-05
1.69088e-05
-2.14791e-05
1.79137e-05
-2.28594e-05
1.8916e-05
-2.43126e-05
1.98977e-05
-2.57573e-05
2.08431e-05
-2.70569e-05
2.17475e-05
-2.8007e-05
2.26268e-05
-2.83093e-05
2.35609e-05
-2.76543e-05
1.23821e-05
-2.25012e-05
3.61196e-07
-5.34374e-06
8.93891e-08
-6.95446e-07
1.76773e-08
-1.79508e-08
2.95469e-09
2.08165e-08
4.62547e-10
8.01901e-09
7.1265e-11
2.06223e-09
1.09884e-11
4.4452e-10
1.7131e-12
8.57118e-11
2.82701e-13
1.52141e-11
5.3423e-14
2.52832e-12
1.3175e-14
3.95421e-13
3.50168e-15
6.66065e-14
2.36179e-15
1.25334e-14
8.73784e-16
3.46656e-15
2.38275e-16
9.57699e-16
6.84744e-17
2.99346e-16
1.82526e-17
1.05594e-16
3.35374e-18
3.58383e-17
9.08771e-18
1.09308e-06
-1.9342e-05
2.21557e-06
-1.97743e-05
3.26729e-06
-1.83914e-05
4.24437e-06
-1.72891e-05
5.15601e-06
-1.64767e-05
6.01538e-06
-1.59102e-05
6.8361e-06
-1.55557e-05
7.63092e-06
-1.53855e-05
8.41137e-06
-1.53777e-05
9.18774e-06
-1.55149e-05
9.96909e-06
-1.5785e-05
1.07633e-05
-1.618e-05
1.1577e-05
-1.66964e-05
1.24154e-05
-1.73342e-05
1.32825e-05
-1.80963e-05
1.41801e-05
-1.89873e-05
1.51079e-05
-2.00114e-05
1.60625e-05
-2.11692e-05
1.70368e-05
-2.24534e-05
1.80193e-05
-2.38419e-05
1.89944e-05
-2.52877e-05
1.99444e-05
-2.67074e-05
2.08542e-05
-2.79666e-05
2.17168e-05
-2.88697e-05
2.25356e-05
-2.9128e-05
2.33674e-05
-2.84861e-05
1.12107e-05
-2.29326e-05
3.32062e-07
-4.79036e-06
7.06116e-08
-6.53393e-07
1.22e-08
-1.45249e-08
1.84977e-09
1.78989e-08
2.65306e-10
6.57032e-09
3.7458e-11
1.64318e-09
5.40405e-12
3.48624e-10
8.1785e-13
6.6767e-11
1.36928e-13
1.18099e-11
2.61059e-14
1.95206e-12
7.92079e-15
3.02826e-13
1.9123e-15
5.00615e-14
1.44054e-15
9.15094e-15
4.59501e-16
2.19684e-15
1.11037e-16
5.32842e-16
3.27978e-17
1.52962e-16
1.02106e-17
5.33671e-17
2.25595e-18
2.04233e-17
7.02845e-18
5.82333e-46
-6.34242e-44
1.6506e-43
-3.5394e-43
6.21011e-44
-4.20593e-43
8.0866e-45
-1.80942e-44
8.62989e-46
-5.37692e-45
4.91708e-47
-4.612e-46
2.16485e-48
-1.69234e-47
7.99515e-50
-4.42101e-49
2.71969e-51
-8.83051e-51
8.08772e-53
-1.17554e-52
2.84979e-54
-3.04293e-55
1.63209e-55
1.14072e-56
8.13119e-57
1.42716e-57
3.9927e-58
1.05916e-58
1.90304e-59
6.1007e-60
8.73667e-61
3.29203e-61
3.84787e-62
1.6896e-62
1.61956e-63
8.1801e-64
6.49058e-65
3.73982e-65
2.46757e-66
1.61573e-66
8.86462e-68
6.59131e-68
2.99645e-69
2.53532e-69
9.48619e-71
9.16961e-71
2.7981e-72
3.10795e-72
7.64502e-74
9.8324e-74
1.92161e-75
2.89241e-75
4.40693e-77
7.87389e-77
9.12671e-79
1.9724e-78
1.68454e-80
4.51087e-80
2.7229e-82
9.3283e-82
3.76273e-84
1.72062e-83
4.29413e-86
2.77574e-85
3.84008e-88
3.80449e-87
2.47267e-90
4.22555e-89
9.87071e-93
3.50798e-91
2.08103e-95
1.87261e-93
3.66665e-96
4.42431e-96
3.72058e-99
5.06041e-44
-2.40577e-43
2.30552e-41
-6.84059e-41
5.56294e-42
-2.54096e-41
6.90869e-43
-2.69897e-42
7.12279e-44
-4.05142e-43
3.97558e-45
-3.74943e-44
1.68023e-46
-1.35055e-45
5.99683e-48
-3.44669e-47
1.88924e-49
-6.63276e-49
6.13549e-51
-8.28996e-51
2.5421e-52
-3.42372e-53
1.31936e-53
3.9857e-54
6.42573e-55
4.43394e-55
3.10898e-56
3.17302e-56
1.45909e-57
1.85611e-57
6.58763e-59
9.93297e-59
2.85225e-60
5.00395e-60
1.18039e-61
2.37787e-61
4.65261e-63
1.06719e-62
1.74033e-64
4.52641e-64
6.15444e-66
1.81312e-65
2.0493e-67
6.84898e-67
6.39675e-69
2.43403e-68
1.86252e-70
8.11361e-70
5.03002e-72
2.52765e-71
1.25164e-73
7.33125e-73
2.84686e-75
1.97048e-74
5.8607e-77
4.87997e-76
1.07851e-78
1.10532e-77
1.74549e-80
2.26818e-79
2.43037e-82
4.16363e-81
2.8231e-84
6.7162e-83
2.6142e-86
9.27252e-85
1.79828e-88
1.0519e-86
8.16131e-91
9.15983e-89
1.9513e-93
5.42264e-91
4.95497e-96
1.68368e-93
1.29576e-96
7.11478e-42
-4.00186e-41
1.50985e-39
-5.65014e-39
2.73087e-40
-1.79007e-39
2.98083e-41
-1.72187e-40
3.01735e-42
-2.01542e-41
1.65408e-43
-1.65276e-42
6.81583e-45
-5.81661e-44
2.38269e-46
-1.47836e-45
7.33121e-48
-2.90785e-47
2.25456e-49
-3.93521e-49
8.70553e-51
-1.25951e-51
4.46012e-52
2.3411e-52
2.07133e-53
2.30098e-53
9.53595e-55
1.53493e-54
4.2557e-56
8.60497e-56
1.82665e-57
4.39756e-57
7.51555e-59
2.10368e-58
2.95487e-60
9.47838e-60
1.10647e-61
4.03201e-61
3.9323e-63
1.62075e-62
1.32156e-64
6.15277e-64
4.18373e-66
2.20279e-65
1.24228e-67
7.42137e-67
3.44326e-69
2.34635e-68
8.85985e-71
6.93783e-70
2.10274e-72
1.91129e-71
4.5678e-74
4.88307e-73
8.99704e-76
1.15043e-74
1.58805e-77
2.48161e-76
2.47425e-79
4.85712e-78
3.33532e-81
8.524e-80
3.78499e-83
1.31967e-81
3.47628e-85
1.76057e-83
2.43466e-87
1.95377e-85
1.30319e-89
1.70327e-87
4.2612e-92
1.05698e-89
3.11756e-94
3.89733e-92
4.7657e-95
4.91893e-40
-3.43308e-39
6.28531e-38
-2.85304e-37
9.06177e-39
-7.91084e-38
8.76138e-40
-6.90036e-39
8.67021e-41
-6.72898e-40
4.67734e-42
-4.95439e-41
1.88483e-43
-1.70584e-42
6.43866e-45
-4.29795e-44
1.93376e-46
-8.47988e-46
5.50597e-48
-1.16187e-47
2.01279e-49
-1.75946e-50
9.85329e-51
8.054e-51
4.31546e-52
7.02451e-52
1.87658e-53
4.3457e-53
7.89894e-55
2.29888e-54
3.19697e-56
1.10924e-55
1.23994e-57
4.9976e-57
4.59432e-59
2.11855e-58
1.62108e-60
8.476e-60
5.42871e-62
3.20377e-61
1.71938e-63
1.14354e-62
5.13085e-65
3.84937e-64
1.43662e-66
1.21956e-65
3.75672e-68
3.62697e-67
9.12567e-70
1.00925e-68
2.04642e-71
2.61772e-70
4.20522e-73
6.29999e-72
7.84782e-75
1.39907e-73
1.31547e-76
2.84732e-75
1.95305e-78
5.26495e-77
2.5219e-80
8.74803e-79
2.76382e-82
1.28693e-80
2.48343e-84
1.64156e-82
1.89679e-86
1.76084e-84
1.08998e-88
1.51377e-86
4.07468e-91
9.58313e-89
6.10677e-93
3.92782e-91
6.76058e-94
2.11765e-38
-1.81973e-37
1.90075e-36
-1.02692e-35
2.29119e-37
-2.54685e-36
1.98069e-38
-2.02299e-37
1.91257e-39
-1.69944e-38
1.01856e-40
-1.13618e-39
4.02462e-42
-3.82982e-41
1.34055e-43
-9.52063e-43
3.89445e-45
-1.85183e-44
1.03485e-46
-2.44452e-46
3.62837e-48
1.97302e-49
1.67482e-49
2.00783e-49
6.92152e-51
1.56253e-50
2.83801e-52
8.96489e-52
1.12464e-53
4.45343e-53
4.28358e-55
2.02143e-54
1.56297e-56
8.5595e-56
5.44647e-58
3.40815e-57
1.80698e-59
1.28032e-58
5.68929e-61
4.5429e-60
1.69415e-62
1.52203e-61
4.75379e-64
4.809e-63
1.2519e-65
1.43021e-64
3.08011e-67
3.99347e-66
7.04338e-69
1.04362e-67
1.48795e-70
2.54306e-69
2.88339e-72
5.75244e-71
5.08189e-74
1.20138e-72
8.06203e-76
2.30129e-74
1.13641e-77
4.01039e-76
1.39976e-79
6.29285e-78
1.4737e-81
8.77203e-80
1.38179e-83
1.06629e-81
1.06479e-85
1.10093e-83
6.19312e-88
9.24193e-86
2.5077e-90
5.86391e-88
5.76072e-92
2.55084e-90
5.53506e-93
6.40298e-37
-6.76548e-36
4.48876e-35
-2.85725e-34
4.70109e-36
-6.45082e-35
3.63415e-37
-4.69238e-36
3.3967e-38
-3.41552e-37
1.79119e-39
-2.09887e-38
6.95886e-41
-6.95233e-40
2.25503e-42
-1.70415e-41
6.30588e-44
-3.23685e-43
1.6196e-45
-3.9962e-45
5.55116e-47
1.60528e-47
2.39306e-48
4.04489e-48
9.38699e-50
2.829e-49
3.63286e-51
1.50907e-50
1.35716e-52
7.03952e-52
4.87039e-54
3.00676e-53
1.67359e-55
1.19786e-54
5.49022e-57
4.4859e-56
1.71426e-58
1.58456e-57
5.07867e-60
5.28558e-59
1.42291e-61
1.66454e-60
3.75674e-63
4.94328e-62
9.30987e-65
1.38185e-63
2.15606e-66
3.62716e-65
4.64279e-68
8.91261e-67
9.24195e-70
2.04265e-68
1.68912e-71
4.34741e-70
2.81155e-73
8.54739e-72
4.22058e-75
1.5426e-73
5.64538e-77
2.53588e-75
6.68972e-79
3.76146e-77
7.22704e-81
4.97182e-79
6.65018e-83
5.76298e-81
5.01438e-85
5.71011e-83
2.90742e-87
4.65475e-85
1.22551e-89
2.92492e-87
3.53769e-91
1.30561e-89
3.28094e-92
1.45622e-35
-1.91684e-34
8.6521e-34
-6.45329e-33
8.13588e-35
-1.34455e-33
5.57167e-36
-9.00402e-35
5.09203e-37
-5.72083e-36
2.67773e-38
-3.28022e-37
1.03046e-39
-1.07128e-38
3.26934e-41
-2.59464e-40
8.82607e-43
-4.79433e-42
2.2117e-44
-5.35217e-44
7.59314e-46
4.72516e-46
3.06654e-47
7.07183e-47
1.14635e-48
4.47792e-48
4.20334e-50
2.23039e-49
1.48568e-51
9.79815e-51
5.04044e-53
3.94973e-52
1.63648e-54
1.48538e-53
5.06983e-56
5.25024e-55
1.49437e-57
1.74999e-56
4.17823e-59
5.50709e-58
1.10461e-60
1.63589e-59
2.75172e-62
4.58212e-61
6.43463e-64
1.20808e-62
1.40639e-65
2.991e-64
2.85915e-67
6.93328e-66
5.37617e-69
1.4994e-67
9.28916e-71
3.01229e-69
1.46349e-72
5.59368e-71
2.0857e-74
9.54284e-73
2.77993e-76
1.48459e-74
3.29853e-78
2.08925e-76
3.42505e-80
2.62671e-78
3.04488e-82
2.90403e-80
2.23869e-84
2.76075e-82
1.28218e-86
2.17882e-84
5.45928e-89
1.34443e-86
1.6896e-90
6.0093e-89
1.63792e-91
2.58047e-34
-4.39469e-33
1.40224e-32
-1.22059e-31
1.21889e-33
-2.37045e-32
7.71121e-35
-1.46886e-33
6.60717e-36
-8.52458e-35
3.47628e-37
-4.43703e-36
1.33515e-38
-1.43096e-37
4.17934e-40
-3.43251e-39
1.09641e-41
-6.14837e-41
2.71791e-43
-5.89441e-43
9.6282e-45
9.93556e-45
3.65875e-46
1.11734e-45
1.31078e-47
6.46384e-47
4.57899e-49
3.02412e-48
1.53951e-50
1.25739e-49
4.96363e-52
4.8076e-51
1.53036e-53
1.71556e-52
4.49955e-55
5.75334e-54
1.25812e-56
1.81907e-55
3.33571e-58
5.42877e-57
8.36049e-60
1.52902e-58
1.97423e-61
4.06018e-60
4.376e-63
1.01478e-61
9.06714e-65
2.38176e-63
1.74795e-66
5.23474e-65
3.11811e-68
1.07367e-66
5.20554e-70
2.04634e-68
8.09208e-72
3.60816e-70
1.14528e-73
5.85146e-72
1.46184e-75
8.66328e-74
1.66416e-77
1.16073e-75
1.66452e-79
1.39216e-77
1.43194e-81
1.47275e-79
1.02503e-83
1.34532e-81
5.76565e-86
1.0266e-83
2.42753e-88
6.18356e-86
7.10159e-90
2.72089e-88
7.65265e-91
3.56972e-33
-8.56089e-32
1.95583e-31
-1.97031e-30
1.6119e-32
-3.59284e-31
9.54266e-34
-2.07032e-32
7.50679e-35
-1.10561e-33
3.95145e-36
-5.25981e-35
1.52416e-37
-1.67404e-36
4.74427e-39
-3.98194e-38
1.21908e-40
-6.87076e-40
3.07606e-42
-5.09525e-42
1.15694e-43
1.81393e-43
4.16168e-45
1.63469e-44
1.43858e-46
8.73214e-46
4.82184e-48
3.86619e-47
1.55283e-49
1.53178e-48
4.79021e-51
5.59229e-50
1.41183e-52
1.90634e-51
3.96543e-54
6.10677e-53
1.05859e-55
1.84389e-54
2.67851e-57
5.25361e-56
6.40471e-59
1.41233e-57
1.44258e-60
3.57899e-59
3.04974e-62
8.53652e-61
6.0885e-64
1.912e-62
1.15396e-65
4.01159e-64
2.03146e-67
7.85996e-66
3.30178e-69
1.43162e-67
4.92644e-71
2.41234e-69
6.69969e-73
3.73923e-71
8.23264e-75
5.2956e-73
9.0415e-77
6.79537e-75
8.74647e-79
7.8174e-77
7.29921e-81
7.94784e-79
5.08773e-83
6.99583e-81
2.80077e-85
5.16324e-83
1.1503e-87
3.02439e-85
2.87883e-89
1.29552e-87
3.61878e-90
3.71356e-32
-1.48527e-30
2.40354e-30
-2.73522e-29
1.91339e-31
-4.72175e-30
1.06245e-32
-2.5415e-31
7.50212e-34
-1.25357e-32
3.92993e-35
-5.49307e-34
1.52738e-36
-1.72069e-35
4.77493e-38
-4.05018e-37
1.27381e-39
-6.64084e-39
3.47963e-41
-2.74961e-41
1.32398e-42
3.02888e-42
4.57704e-44
2.24599e-43
1.5395e-45
1.12127e-44
4.9927e-47
4.73988e-46
1.55289e-48
1.8042e-47
4.6209e-50
6.34048e-49
1.31245e-51
2.08147e-50
3.5495e-53
6.42069e-52
9.11813e-55
1.86632e-53
2.219e-56
5.11746e-55
5.10136e-58
1.32376e-56
1.13559e-59
3.22707e-58
2.37985e-61
7.40998e-60
4.66676e-63
1.59782e-61
8.53599e-65
3.22663e-63
1.45016e-66
6.08195e-65
2.27691e-68
1.06595e-66
3.28483e-70
1.72903e-68
4.32411e-72
2.58129e-70
5.15e-74
3.52326e-72
5.48976e-76
4.36081e-74
5.16234e-78
4.84338e-76
4.19426e-80
4.75914e-78
2.85073e-82
4.05347e-80
1.53319e-84
2.89885e-82
6.09657e-87
1.64838e-84
1.21104e-88
6.82913e-87
1.8409e-89
3.06474e-31
-2.42537e-29
2.6812e-29
-3.25179e-28
2.07206e-30
-5.40991e-29
1.06725e-31
-2.72205e-30
6.57596e-33
-1.24018e-31
3.39861e-34
-5.07409e-33
1.32798e-35
-1.5538e-34
4.20438e-37
-3.59697e-36
1.25374e-38
-5.47042e-38
3.92307e-40
6.25317e-41
1.43994e-41
4.51746e-41
4.8781e-43
2.89842e-42
1.60962e-44
1.37031e-43
5.09864e-46
5.58626e-45
1.54616e-47
2.06217e-46
4.47979e-49
7.04093e-48
1.23754e-50
2.24661e-49
3.25246e-52
6.73503e-51
8.11363e-54
1.90212e-52
1.97709e-55
5.06625e-54
4.55939e-57
1.27395e-55
9.89388e-59
3.01849e-57
2.01629e-60
6.72838e-59
3.84739e-62
1.4082e-60
6.84979e-64
2.76015e-62
1.13319e-65
5.05049e-64
1.7336e-67
8.59438e-66
2.43863e-69
1.35394e-67
3.1327e-71
1.96392e-69
3.64412e-73
2.60575e-71
3.79701e-75
3.13669e-73
3.4921e-77
3.38964e-75
2.77539e-79
3.24142e-77
1.84456e-81
2.68644e-79
9.69152e-84
1.86826e-81
3.72051e-86
1.03168e-83
5.61565e-88
4.12046e-86
1.05192e-88
5.5322e-30
-4.02365e-28
2.81588e-28
-3.28179e-27
2.07447e-29
-5.4698e-28
9.68249e-31
-2.52862e-29
5.52328e-32
-1.06361e-30
2.61272e-33
-4.11654e-32
1.05255e-34
-1.22303e-33
3.69362e-36
-2.73683e-35
1.13746e-37
-3.51744e-37
4.1235e-39
4.16536e-39
1.48466e-40
6.03807e-40
5.02362e-42
3.49684e-41
1.63986e-43
1.5875e-42
5.12592e-45
6.30934e-44
1.5313e-46
2.28218e-45
4.36457e-48
7.64783e-47
1.18473e-49
2.396e-48
3.09869e-51
7.0519e-50
7.87172e-53
1.95601e-51
1.89121e-54
5.11921e-53
4.28349e-56
1.26285e-54
9.13333e-58
2.93441e-56
1.82883e-59
6.41377e-58
3.42908e-61
1.31608e-59
6.0003e-63
2.529e-61
9.75959e-65
4.53705e-63
1.46863e-66
7.57087e-65
2.03318e-68
1.16984e-66
2.57192e-70
1.66489e-68
2.94743e-72
2.16803e-70
3.02624e-74
2.56199e-72
2.74195e-76
2.71783e-74
2.14482e-78
2.55012e-76
1.40014e-80
2.0712e-78
7.20089e-83
1.40821e-80
2.66966e-85
7.57206e-83
3.00341e-87
2.91526e-85
6.97282e-88
3.18655e-28
-7.49651e-27
2.87558e-27
-2.92488e-26
1.88905e-28
-4.70509e-27
7.80253e-30
-1.98228e-28
4.38002e-31
-7.8106e-30
2.07692e-32
-2.93434e-31
8.46358e-34
-8.46309e-33
3.03042e-35
-1.77312e-34
1.0483e-36
-1.58807e-36
3.9771e-38
7.77574e-38
1.42309e-39
7.11814e-39
4.84602e-41
3.83481e-40
1.58194e-42
1.69495e-41
4.93333e-44
6.64287e-43
1.46778e-45
2.38017e-44
4.16058e-47
7.91329e-46
1.1361e-48
2.46047e-47
3.03381e-50
7.1917e-49
7.66963e-52
1.98138e-50
1.82967e-53
5.14372e-52
4.11597e-55
1.25832e-53
8.7146e-57
2.89868e-55
1.73259e-58
6.27964e-57
3.22566e-60
1.27699e-58
5.6053e-62
2.43171e-60
9.05638e-64
4.3233e-62
1.3542e-65
7.15027e-64
1.86362e-67