/*--------------------------------*- C++ -*----------------------------------*\
  =========                 |
  \\      /  F ield         | OpenFOAM: The Open Source CFD Toolbox
   \\    /   O peration     | Website:  https://openfoam.org
    \\  /    A nd           | Version:  7
     \\/     M anipulation  |
\*---------------------------------------------------------------------------*/
FoamFile
{
    version     2.0;
    format      ascii;
    class       volScalarField;
    location    "0.1";
    object      epsilon;
}
// * * * * * * * * * * * * * * * * * * * * * * * * * * * * * * * * * * * * * //

dimensions      [0 2 -3 0 0 0 0];

internalField   nonuniform List<scalar> 
9072
(
0.14909
0.340255
0.523805
0.667187
0.776829
0.861781
0.929384
0.985294
1.03381
1.07816
1.12084
1.1639
1.20909
1.25806
1.31256
1.3745
1.44625
1.53065
1.63109
1.75118
1.89343
2.05651
2.23071
2.39268
2.50401
2.51912
2.40455
2.1859
1.93461
1.67183
1.42623
1.22352
1.09306
1.02827
0.985211
0.950433
0.952426
1.10087
1.48129
0.456707
0.509826
0.519014
0.503924
0.46547
0.387588
0.253067
0.192706
0.24288
0.294671
0.332867
0.360769
0.381735
0.398217
0.41193
0.424073
0.435496
0.44683
0.458578
0.471185
0.485083
0.500745
0.518728
0.539723
0.564601
0.594405
0.630234
0.672836
0.721761
0.774044
0.822935
0.858035
0.86889
0.853061
0.82098
0.788724
0.737001
0.669809
0.604395
0.557847
0.532277
0.50801
0.520294
0.579959
0.658481
0.694433
0.537221
0.47558
0.451681
0.43792
0.416319
0.365124
0.370655
0.252343
0.252345
0.27012
0.282237
0.290354
0.296289
0.301202
0.305796
0.310492
0.315552
0.321161
0.327479
0.334668
0.342927
0.352508
0.363745
0.37708
0.393081
0.412426
0.435779
0.463491
0.494999
0.527992
0.557781
0.57783
0.582788
0.574041
0.561038
0.552528
0.53886
0.515226
0.489843
0.471714
0.464131
0.456052
0.467732
0.519129
0.570644
0.567923
0.503787
0.453763
0.426252
0.412487
0.398888
0.369174
0.440569
0.298382
0.267003
0.265869
0.264417
0.262643
0.261295
0.260757
0.261171
0.262555
0.264881
0.268121
0.272275
0.277383
0.283542
0.290916
0.299749
0.310385
0.323264
0.33889
0.357705
0.379806
0.404467
0.429514
0.451023
0.464034
0.465273
0.457519
0.449648
0.448171
0.448202
0.445194
0.440403
0.437529
0.438887
0.452402
0.478195
0.502186
0.514124
0.498564
0.459827
0.424055
0.401385
0.390877
0.384642
0.374442
0.512524
0.335706
0.278968
0.264758
0.254477
0.246456
0.240584
0.236691
0.234545
0.233907
0.234572
0.236385
0.239252
0.243141
0.248087
0.254199
0.261664
0.270755
0.281817
0.295224
0.311244
0.329796
0.350046
0.369974
0.386284
0.395197
0.394821
0.388626
0.384764
0.388653
0.396943
0.404911
0.412032
0.418886
0.432281
0.461624
0.48233
0.477086
0.462954
0.443529
0.416952
0.39172
0.375177
0.369365
0.370682
0.378436
0.580437
0.366665
0.287693
0.263693
0.247189
0.234856
0.225874
0.219662
0.215726
0.213653
0.213122
0.213894
0.215813
0.218797
0.222839
0.228002
0.234427
0.242321
0.251945
0.263556
0.277284
0.29292
0.309607
0.325558
0.338132
0.344615
0.344199
0.340646
0.341141
0.349803
0.363345
0.378139
0.392472
0.404597
0.430529
0.461539
0.462547
0.438602
0.416073
0.397616
0.378136
0.360201
0.349241
0.348454
0.357256
0.381438
0.643558
0.392695
0.293769
0.262178
0.241121
0.22568
0.214446
0.206528
0.201246
0.198068
0.196592
0.196523
0.19766
0.199887
0.203159
0.207503
0.213012
0.219834
0.228148
0.238109
0.249738
0.262745
0.276319
0.288965
0.298703
0.30378
0.304265
0.304025
0.309131
0.321491
0.338252
0.356949
0.369602
0.390429
0.423163
0.441531
0.426922
0.398043
0.375182
0.358683
0.343608
0.330817
0.324633
0.328707
0.344672
0.383885
0.702422
0.414834
0.297892
0.260321
0.235864
0.21812
0.205195
0.195969
0.189626
0.185553
0.183291
0.182507
0.182966
0.184523
0.187103
0.190699
0.195357
0.201171
0.208245
0.216648
0.226314
0.236917
0.247729
0.257574
0.265082
0.269315
0.271033
0.27418
0.283598
0.298503
0.316394
0.329338
0.345715
0.376318
0.405553
0.409671
0.388579
0.360914
0.339962
0.32525
0.313107
0.304128
0.301993
0.310582
0.333271
0.386344
0.758184
0.433835
0.300666
0.258356
0.231321
0.211829
0.197596
0.18733
0.180122
0.175299
0.172365
0.170956
0.170814
0.171768
0.173716
0.176619
0.180484
0.18535
0.191258
0.198203
0.206061
0.214496
0.222888
0.230357
0.236054
0.239675
0.242453
0.248361
0.261061
0.277288
0.290236
0.301677
0.326362
0.361491
0.381883
0.376333
0.353592
0.328486
0.309559
0.296299
0.28631
0.280333
0.28168
0.294429
0.323445
0.38955
0.812581
0.450205
0.302559
0.256499
0.227482
0.20663
0.191353
0.180234
0.172298
0.166833
0.163313
0.161353
0.160674
0.161083
0.162456
0.164724
0.167857
0.171847
0.176681
0.182299
0.188535
0.195065
0.201379
0.206858
0.211051
0.214099
0.217436
0.224726
0.238521
0.253288
0.262601
0.277811
0.311301
0.345462
0.357
0.345804
0.323181
0.300404
0.283167
0.271131
0.262901
0.259433
0.263852
0.280498
0.315619
0.394462
0.868075
0.46425
0.303921
0.254914
0.224351
0.20241
0.186271
0.17443
0.165867
0.159841
0.155805
0.153354
0.152195
0.152117
0.152973
0.154667
0.157138
0.160338
0.16421
0.168652
0.173475
0.178379
0.182958
0.186799
0.189741
0.192187
0.195528
0.20259
0.214198
0.222891
0.234746
0.257215
0.297092
0.327617
0.332681
0.318639
0.296808
0.275971
0.260152
0.249242
0.242575
0.241311
0.248532
0.268965
0.310282
0.402445
0.928197
0.476133
0.305006
0.253708
0.221913
0.199071
0.182197
0.169728
0.160612
0.154088
0.149592
0.146707
0.145121
0.14461
0.145006
0.146192
0.148078
0.150583
0.153617
0.157047
0.160677
0.164233
0.167402
0.169932
0.171848
0.173682
0.176645
0.182621
0.190968
0.196884
0.211161
0.239235
0.281679
0.308045
0.309248
0.29428
0.273669
0.254558
0.240032
0.230233
0.22503
0.225774
0.235641
0.259941
0.308031
0.415666
0.998223
0.485959
0.305998
0.252927
0.220125
0.196513
0.178993
0.165964
0.156354
0.149383
0.144477
0.141204
0.139242
0.13835
0.138345
0.139089
0.140469
0.142379
0.144702
0.147287
0.149937
0.15241
0.154467
0.155974
0.157073
0.158333
0.160767
0.165675
0.172158
0.176778
0.193016
0.224328
0.265435
0.287576
0.286776
0.272169
0.253129
0.235686
0.222432
0.213764
0.209957
0.212563
0.224996
0.253435
0.309587
0.437699
1.08637
0.493875
0.307024
0.252567
0.218916
0.194626
0.176526
0.16299
0.152931
0.145558
0.140285
0.136669
0.134377
0.133154
0.132804
0.133171
0.134124
0.135538
0.137275
0.139174
0.141042
0.142668
0.143874
0.144605
0.145072
0.145828
0.14772
0.151786
0.15732
0.16105
0.179375
0.212713
0.249465
0.267235
0.265475
0.251997
0.234778
0.219017
0.207051
0.199522
0.197033
0.201356
0.216288
0.249251
0.315657
0.474
1.20555
0.500156
0.308147
0.252566
0.218179
0.193281
0.174655
0.160658
0.150192
0.142457
0.136857
0.132939
0.13036
0.128854
0.128213
0.128267
0.128869
0.129878
0.131146
0.132506
0.13377
0.134753
0.135322
0.135479
0.135461
0.135788
0.137178
0.1405
0.145106
0.148278
0.1694
0.203841
0.234498
0.247892
0.245655
0.233664
0.218387
0.204309
0.193629
0.187205
0.185908
0.191747
0.209012
0.246758
0.326244
0.528887
1.37546
0.505222
0.309328
0.252803
0.217767
0.192326
0.173226
0.158814
0.147983
0.139926
0.134038
0.129858
0.127033
0.125289
0.124407
0.124206
0.124527
0.125218
0.126122
0.12707
0.127881
0.12839
0.128494
0.128226
0.127832
0.127783
0.128711
0.131386
0.135046
0.137798
0.162769
0.197209
0.221001
0.230129
0.227542
0.217107
0.203761
0.191321
0.181876
0.176459
0.176157
0.183195
0.202364
0.244496
0.338602
0.599328
1.64317
0.211861
0.328348
0.414536
0.470675
0.50493
0.522312
0.522895
0.522191
0.528281
0.526183
0.529008
0.522179
0.517987
0.528116
0.536626
0.540099
0.540906
0.54084
0.540588
0.540333
0.540112
0.53992
0.539747
0.539582
0.539399
0.539163
0.538806
0.538208
0.537157
0.535274
0.5319
0.525911
0.515403
0.497225
0.466229
0.414361
0.330268
0.207519
0.237535
0.255705
0.290849
0.313102
0.325743
0.33155
0.331048
0.330329
0.33258
0.332389
0.333898
0.332586
0.33175
0.334941
0.337718
0.338932
0.339266
0.339287
0.339225
0.33914
0.339051
0.338959
0.338866
0.338772
0.338673
0.338568
0.338442
0.338269
0.337993
0.337502
0.336575
0.334793
0.33136
0.324811
0.312542
0.290293
0.25331
0.23284
0.268401
0.252691
0.263532
0.269204
0.271071
0.270877
0.269159
0.267889
0.268103
0.268085
0.268786
0.269059
0.26917
0.26977
0.27022
0.270391
0.270427
0.270415
0.270383
0.270331
0.270265
0.270188
0.270105
0.270022
0.269946
0.269884
0.269849
0.269853
0.269911
0.27003
0.270191
0.270302
0.270104
0.268996
0.265748
0.258238
0.245094
0.267884
0.303591
0.261509
0.256561
0.251517
0.246303
0.241845
0.238321
0.235998
0.234944
0.234523
0.234705
0.23518
0.235429
0.235269
0.234988
0.234799
0.23472
0.234692
0.234669
0.234631
0.234576
0.234508
0.234433
0.234363
0.234308
0.234288
0.234329
0.234473
0.234782
0.23534
0.236254
0.237637
0.239564
0.241986
0.244576
0.246699
0.249551
0.305412
0.335934
0.271469
0.255306
0.24258
0.232103
0.224214
0.218718
0.215151
0.213097
0.21211
0.211847
0.212106
0.212257
0.211946
0.211532
0.211275
0.211175
0.211148
0.211134
0.211107
0.211063
0.211006
0.210944
0.210892
0.210865
0.210891
0.211011
0.211289
0.211823
0.212755
0.214279
0.21665
0.220174
0.225178
0.231979
0.241043
0.255762
0.34028
0.364223
0.280625
0.256242
0.237601
0.222847
0.211987
0.204535
0.199678
0.196715
0.195124
0.194432
0.194369
0.194361
0.194057
0.193692
0.193467
0.193382
0.193364
0.193359
0.193342
0.193309
0.193265
0.19322
0.193189
0.193195
0.193273
0.193475
0.193886
0.19463
0.195894
0.197938
0.201119
0.205903
0.212892
0.222869
0.237155
0.261118
0.370964
0.388962
0.289454
0.258916
0.235256
0.216646
0.203006
0.193631
0.187477
0.183634
0.181435
0.180316
0.17992
0.179736
0.179447
0.179154
0.178978
0.178913
0.178904
0.178905
0.178895
0.178872
0.178842
0.178815
0.178809
0.178851
0.178982
0.179268
0.179808
0.18075
0.182314
0.18481
0.188667
0.194471
0.203022
0.215458
0.233789
0.265174
0.397213
0.411152
0.299362
0.263983
0.235416
0.21287
0.196399
0.185072
0.177607
0.172886
0.170079
0.168535
0.167814
0.167449
0.167142
0.166892
0.166749
0.166697
0.16669
0.166693
0.166688
0.166674
0.166656
0.166646
0.166666
0.166745
0.166931
0.1673
0.167963
0.169091
0.170926
0.173816
0.178245
0.184887
0.194691
0.209071
0.23061
0.268072
0.419267
0.432059
0.3124
0.272607
0.238407
0.211355
0.19177
0.178379
0.169563
0.163951
0.160534
0.158566
0.157533
0.156981
0.156619
0.156375
0.156241
0.156188
0.156177
0.156177
0.156174
0.156165
0.156158
0.156165
0.156209
0.156324
0.156565
0.157014
0.157796
0.159095
0.161175
0.164411
0.169328
0.176666
0.187492
0.20344
0.227573
0.270067
0.437569
0.453359
0.331272
0.28623
0.244713
0.212085
0.188891
0.173247
0.163017
0.156496
0.152467
0.150079
0.148743
0.148
0.147554
0.147283
0.147135
0.14707
0.147047
0.147039
0.147033
0.147027
0.147028
0.14705
0.147117
0.147268
0.147561
0.148087
0.14898
0.150437
0.152738
0.156279
0.161616
0.169541
0.181213
0.198447
0.224712
0.271397
0.452627
0.47773
0.359336
0.306354
0.254776
0.215028
0.187564
0.169432
0.157717
0.15027
0.145633
0.142832
0.141203
0.140267
0.139717
0.139394
0.139215
0.139125
0.139084
0.139064
0.139052
0.139046
0.139053
0.139087
0.139176
0.13936
0.139703
0.140302
0.141299
0.142902
0.145402
0.149212
0.154914
0.163339
0.175721
0.194027
0.222068
0.272252
0.464944
0.510733
0.400447
0.334195
0.268764
0.220002
0.187543
0.166694
0.153441
0.145068
0.139833
0.136632
0.134721
0.133594
0.132929
0.132537
0.132314
0.132192
0.132127
0.132091
0.13207
0.132061
0.132072
0.132117
0.132225
0.13244
0.13283
0.133498
0.134592
0.136328
0.139008
0.143058
0.149078
0.157935
0.170922
0.190132
0.219664
0.272776
0.47499
0.565845
0.458771
0.370112
0.286233
0.226538
0.188476
0.164772
0.149975
0.1407
0.134898
0.131316
0.129136
0.127826
0.12704
0.126571
0.126296
0.126137
0.126045
0.12599
0.125958
0.125945
0.125957
0.126011
0.126136
0.12638
0.126814
0.127545
0.128729
0.130588
0.133431
0.137695
0.143996
0.153228
0.166736
0.186718
0.217512
0.273075
0.483194
0.672855
0.538237
0.412781
0.305646
0.233741
0.189872
0.16336
0.1471
0.136988
0.130667
0.126735
0.12431
0.122827
0.121924
0.121376
0.121045
0.120846
0.120725
0.12065
0.120605
0.120585
0.120598
0.120659
0.120801
0.121071
0.121546
0.122337
0.123604
0.125575
0.128566
0.133022
0.139573
0.149133
0.163093
0.183739
0.215607
0.27323
0.489952
0.870231
0.63532
0.45724
0.323838
0.240207
0.19109
0.162115
0.144592
0.13376
0.126993
0.122758
0.120117
0.118478
0.117466
0.116841
0.116456
0.116218
0.116068
0.115973
0.115914
0.115888
0.1159
0.115968
0.116124
0.116419
0.116933
0.11778
0.119124
0.121198
0.124323
0.128953
0.135726
0.145577
0.159932
0.181152
0.213937
0.273299
0.495636
1.15153
0.710941
0.48941
0.335878
0.244174
0.191419
0.160679
0.142225
0.130851
0.123737
0.119259
0.11644
0.114671
0.113563
0.11287
0.112435
0.11216
0.111984
0.11187
0.1118
0.111767
0.111779
0.111853
0.112022
0.112342
0.112891
0.11379
0.115207
0.117376
0.120624
0.125411
0.132383
0.142492
0.157195
0.178913
0.212483
0.273325
0.500567
0.509819
0.310667
0.253206
0.217404
0.191277
0.171562
0.156601
0.145286
0.136804
0.130538
0.12602
0.122886
0.120849
0.119678
0.11918
0.119183
0.119522
0.120034
0.120546
0.120888
0.120913
0.120544
0.119832
0.119003
0.118457
0.11875
0.120592
0.123176
0.126811
0.157375
0.189934
0.202802
0.205305
0.201899
0.193661
0.183161
0.173146
0.1655
0.161438
0.162288
0.170495
0.191363
0.237625
0.345524
0.626639
1.25615
0.515727
0.312364
0.253609
0.216932
0.190103
0.169791
0.154315
0.142551
0.133677
0.127069
0.122248
0.11884
0.11655
0.115135
0.114393
0.11414
0.114205
0.114416
0.114601
0.114596
0.114262
0.113529
0.112442
0.111197
0.110148
0.109863
0.110942
0.112613
0.120478
0.160622
0.187177
0.188158
0.183421
0.17813
0.171335
0.163381
0.155725
0.149818
0.146875
0.148276
0.156356
0.175915
0.217912
0.30998
0.523529
0.991899
0.521646
0.313505
0.253549
0.216181
0.188855
0.168153
0.152355
0.14032
0.131214
0.124404
0.119404
0.115834
0.113392
0.11183
0.110937
0.110526
0.110418
0.110441
0.110422
0.110201
0.109645
0.108687
0.107367
0.105868
0.104547
0.103989
0.104617
0.1057
0.123133
0.169994
0.188193
0.179735
0.169059
0.161389
0.154891
0.148487
0.14253
0.137937
0.13574
0.137196
0.144291
0.160777
0.194433
0.262405
0.402759
0.665753
0.527946
0.314164
0.253013
0.215079
0.187409
0.166471
0.150499
0.138327
0.129106
0.122197
0.117107
0.113452
0.110924
0.109272
0.108281
0.107758
0.107526
0.10741
0.107241
0.106863
0.106152
0.105047
0.103594
0.101975
0.100574
0.0999555
0.100373
0.101363
0.131066
0.180076
0.18931
0.174348
0.159564
0.149789
0.143023
0.137465
0.132684
0.129087
0.12744
0.128787
0.134704
0.147899
0.173354
0.220323
0.304169
0.43253
0.53461
0.314514
0.252143
0.213712
0.185794
0.16472
0.14867
0.136448
0.127192
0.120253
0.115132
0.111441
0.108868
0.107159
0.106097
0.105488
0.105154
0.104923
0.104632
0.104131
0.103307
0.102112
0.1006
0.0989642
0.0976135
0.0970622
0.0974496
0.0992592
0.141172
0.188235
0.189029
0.170033
0.152813
0.141557
0.134403
0.12929
0.125311
0.122466
0.121245
0.122447
0.127264
0.137555
0.156308
0.188055
0.237861
0.303096
0.541519
0.314675
0.251078
0.212191
0.184079
0.162929
0.146856
0.134638
0.125394
0.118466
0.11335
0.109652
0.107058
0.105313
0.104196
0.103517
0.103096
0.102767
0.102373
0.101775
0.100874
0.0996344
0.0981231
0.0965446
0.0953204
0.0948992
0.0953709
0.0997498
0.154961
0.194405
0.187716
0.166155
0.147595
0.135436
0.12797
0.123103
0.119669
0.117378
0.116473
0.117524
0.121386
0.12929
0.142937
0.164348
0.194609
0.229787
0.548554
0.31473
0.249922
0.210609
0.182335
0.161139
0.145074
0.132887
0.123681
0.116786
0.111694
0.108006
0.105406
0.103636
0.102477
0.101737
0.101242
0.100831
0.100355
0.0996869
0.0987404
0.0974951
0.0960297
0.0945576
0.0934954
0.0932228
0.0938414
0.105739
0.170616
0.198961
0.185881
0.16252
0.143266
0.130639
0.12299
0.118272
0.115206
0.113305
0.112616
0.113505
0.116558
0.122557
0.132421
0.14693
0.165811
0.185843
0.555614
0.31473
0.248748
0.209034
0.180618
0.159392
0.143349
0.131205
0.122046
0.115195
0.110135
0.106466
0.103868
0.102082
0.100889
0.1001
0.0995447
0.0990675
0.0985295
0.0978161
0.0968534
0.0956343
0.0942469
0.0929094
0.0920177
0.0918733
0.0925922
0.119764
0.184998
0.201706
0.18349
0.15896
0.139481
0.126707
0.118994
0.114381
0.111556
0.109915
0.109355
0.110074
0.11245
0.116961
0.124077
0.134003
0.146119
0.158065
0.562624
0.314706
0.247598
0.207509
0.178966
0.157719
0.141702
0.129605
0.120497
0.113692
0.108668
0.105021
0.102429
0.100633
0.0994145
0.0985868
0.0979839
0.0974575
0.0968777
0.096141
0.0951861
0.0940165
0.0927265
0.0915369
0.0908073
0.0907738
0.0916514
0.135337
0.195728
0.20232
0.180466
0.155437
0.136093
0.123391
0.1157
0.111168
0.108497
0.107017
0.106516
0.107067
0.10889
0.112267
0.117418
0.124312
0.132316
0.139719
0.569527
0.314675
0.246496
0.20606
0.177403
0.156139
0.14015
0.128098
0.11904
0.112281
0.107293
0.103669
0.101086
0.099285
0.0980484
0.0971919
0.0965543
0.0959942
0.0953902
0.0946491
0.09372
0.0926148
0.0914312
0.09039
0.0898082
0.08989
0.0912852
0.148821
0.203027
0.201359
0.177165
0.152113
0.133092
0.120565
0.112939
0.108468
0.105892
0.104504
0.10402
0.104414
0.105801
0.108335
0.112106
0.116997
0.122458
0.127209
0.576281
0.314646
0.245453
0.204697
0.175939
0.154663
0.138702
0.126693
0.117682
0.110966
0.106013
0.102412
0.0998412
0.0980391
0.0967907
0.0959145
0.0952538
0.0946734
0.09406
0.0933289
0.092438
0.0914052
0.0903293
0.0894284
0.0889793
0.0891817
0.0915693
0.16322
0.20838
0.199936
0.174153
0.14921
0.130507
0.118158
0.110603
0.106179
0.10366
0.102323
0.101831
0.102092
0.103147
0.10507
0.107888
0.111461
0.115327
0.118488
0.582854
0.314624
0.244474
0.203425
0.174576
0.153292
0.137359
0.125392
0.116425
0.10975
0.10483
0.101253
0.098695
0.0968957
0.0956414
0.0947533
0.0940792
0.0934896
0.0928781
0.0921676
0.0913224
0.090365
0.0893931
0.0886208
0.0882926
0.0886384
0.0933081
0.17844
0.212942
0.198953
0.171823
0.146841
0.128324
0.116106
0.108614
0.104228
0.101748
0.10044
0.0999324
0.100089
0.1009
0.102395
0.104565
0.107274
0.110131
0.112316
0.589224
0.314609
0.243557
0.202241
0.173314
0.152026
0.13612
0.124193
0.115269
0.108632
0.103744
0.10019
0.097647
0.0958535
0.0945981
0.0937047
0.0930251
0.092435
0.0918338
0.0911507
0.0903553
0.0894725
0.0885983
0.0879403
0.0877211
0.0882623
0.0991858
0.194052
0.217629
0.198822
0.170219
0.144941
0.126467
0.114335
0.106905
0.102561
0.100115
0.0988281
0.0983084
0.0983901
0.0990309
0.100232
0.10197
0.104116
0.106332
0.107907
0.595376
0.314601
0.2427
0.201142
0.172147
0.150859
0.134982
0.123093
0.114209
0.107609
0.102752
0.0992219
0.0966942
0.0949092
0.0936566
0.0927631
0.092084
0.0914995
0.0909145
0.090263
0.0895188
0.088708
0.0879239
0.0873645
0.0872356
0.0879879
0.114667
0.209362
0.222606
0.199268
0.169022
0.143298
0.124812
0.11277
0.105421
0.101134
0.0987271
0.0974627
0.0969393
0.0969729
0.0975014
0.0985095
0.0999645
0.101746
0.103549
0.104735
0.6013
0.314597
0.241898
0.20012
0.171069
0.149785
0.133937
0.122087
0.113241
0.106677
0.101849
0.0983428
0.0958317
0.0940572
0.0928106
0.0919208
0.0912467
0.0906724
0.0901071
0.0894894
0.088796
0.0880536
0.0873523
0.0868766
0.0868124
0.0876402
0.140198
0.2225
0.226714
0.199423
0.167721
0.141656
0.123237
0.111345
0.104118
0.0999101
0.097553
0.0963176
0.0958004
0.0958086
0.0962682
0.0971535
0.0984269
0.0999731
0.101508
0.102441
0.60699
0.314594
0.241145
0.19917
0.170073
0.148798
0.132979
0.121166
0.112359
0.105828
0.10103
0.0975474
0.0950536
0.0932912
0.0920529
0.0911698
0.0905038
0.0899425
0.0893991
0.0888156
0.0881714
0.0874933
0.0868685
0.0864656
0.0864572
0.0873094
0.163358
0.231608
0.228769
0.198555
0.165949
0.13985
0.121668
0.110019
0.102962
0.098859
0.0965645
0.0953655
0.094864
0.0948644
0.0952862
0.0960972
0.0972563
0.0986505
0.100009
0.10077
0.61244
0.314589
0.240437
0.198285
0.169151
0.147888
0.132101
0.120325
0.111555
0.105058
0.100289
0.0968291
0.0943532
0.092604
0.0913757
0.0905014
0.0898456
0.0892992
0.0887785
0.0882288
0.0876315
0.0870133
0.0864597
0.0861235
0.0861808
0.0873194
0.177663
0.237283
0.22888
0.196629
0.163668
0.13786
0.120092
0.108774
0.101932
0.0979563
0.0957352
0.0945795
0.0941015
0.0941069
0.0945122
0.095281
0.0963691
0.0976639
0.0989014
0.0995417
0.617647
0.314579
0.239766
0.197458
0.168296
0.14705
0.131296
0.119557
0.110823
0.104359
0.0996181
0.0961813
0.0937236
0.0919886
0.0907715
0.0899074
0.0892632
0.0887326
0.0882348
0.0877178
0.0871645
0.0866019
0.0861132
0.085837
0.0859599
0.0874741
0.190321
0.241528
0.227952
0.194039
0.161055
0.135767
0.118538
0.107613
0.101016
0.0971821
0.0950422
0.0939348
0.0934857
0.0935046
0.0939072
0.0946541
0.0956981
0.0969255
0.098076
0.098625
0.622607
0.314559
0.239128
0.196683
0.167502
0.146276
0.130556
0.118855
0.110156
0.103725
0.0990115
0.0955977
0.0931584
0.091438
0.0902329
0.0893801
0.0887484
0.088234
0.0877588
0.0872729
0.0867609
0.0862496
0.0858206
0.0855999
0.0857876
0.087827
0.202379
0.245135
0.226508
0.191108
0.158304
0.133672
0.117051
0.106548
0.100207
0.0965206
0.0944655
0.0934094
0.0929927
0.0930303
0.0934382
0.094175
0.0951906
0.096369
0.097452
0.0979271
0.62732
0.314525
0.238517
0.195952
0.166761
0.14556
0.129876
0.118212
0.109549
0.103149
0.0984631
0.0950719
0.092651
0.0909456
0.0897532
0.0889123
0.0882936
0.0877955
0.0873422
0.0868858
0.0864123
0.0859486
0.0855746
0.0854063
0.0856618
0.088487
0.213389
0.247821
0.224546
0.18798
0.15556
0.13167
0.115676
0.105591
0.0995012
0.0959593
0.0939891
0.0929855
0.0926026
0.0926613
0.0930784
0.0938109
0.094806
0.0959453
0.0969711
0.0973818
0.631789
0.314473
0.237926
0.19526
0.166067
0.144895
0.129248
0.117622
0.108995
0.102626
0.0979668
0.0945981
0.0921957
0.0905054
0.0893261
0.0884975
0.087892
0.0874101
0.0869779
0.0865494
0.0861116
0.0856919
0.0853688
0.0852517
0.0855844
0.0897052
0.222858
0.249305
0.222075
0.184825
0.152982
0.129857
0.114454
0.104753
0.0988947
0.0954891
0.0936012
0.0926494
0.0923003
0.0923802
0.0928072
0.0935371
0.0945144
0.0956183
0.0965915
0.0969421
0.636016
0.314399
0.237351
0.1946
0.165414
0.144275
0.128667
0.11708
0.108488
0.10215
0.0975174
0.0941708
0.0917868
0.0901119
0.0889457
0.0881296
0.0875375
0.0870715
0.0866596
0.0862573
0.0858527
0.0854733
0.0851972
0.0851319
0.0855588
0.0919316
0.23121
0.249823
0.219467
0.181968
0.150766
0.128323
0.113421
0.104043
0.0983855
0.0951041
0.0932941
0.0923924
0.0920756
0.0921748
0.0926097
0.0933354
0.094294
0.0953624
0.0962835
0.0965755
0.640013
0.314301
0.236786
0.193966
0.164796
0.143694
0.128127
0.116579
0.108022
0.101716
0.0971096
0.0937851
0.0914193
0.0897596
0.0886068
0.0878031
0.0872243
0.086774
0.0863817
0.086004
0.08563
0.0852873
0.0850541
0.0850427
0.085597
0.0963194
0.239494
0.250338
0.217481
0.179838
0.149099
0.127131
0.112588
0.10346
0.0979709
0.0948014
0.0930649
0.0922104
0.0919225
0.0920372
0.0924759
0.0931933
0.0941296
0.0951593
0.0960263
0.0962589
0.643805
0.314181
0.236225
0.19335
0.164202
0.143143
0.12762
0.116114
0.107593
0.101318
0.0967385
0.0934361
0.0910885
0.089444
0.0883042
0.087513
0.0869473
0.0865124
0.086139
0.0857847
0.0854389
0.0851294
0.0849342
0.0849774
0.0857152
0.105948
0.249418
0.252297
0.216933
0.178755
0.148056
0.126278
0.111943
0.102996
0.097649
0.0945822
0.0929148
0.0921033
0.0918392
0.0919633
0.0923995
0.0931023
0.0940103
0.0949963
0.0958053
0.0959766
0.647449
0.314046
0.235662
0.192741
0.163624
0.142611
0.127138
0.115676
0.107194
0.100952
0.0963997
0.0931197
0.0907902
0.0891604
0.0880334
0.0872542
0.0867014
0.0862816
0.0859266
0.085595
0.0852758
0.0849958
0.0848319
0.0849222
0.085884
0.127613
0.26198
0.256471
0.218019
0.17863
0.147506
0.125673
0.11144
0.102637
0.0974203
0.094452
0.0928494
0.0920747
0.0918266
0.0919516
0.0923765
0.0930563
0.0939285
0.0948641
0.0956099
0.0957169
0.651078
0.313916
0.235083
0.19212
0.163041
0.142086
0.126668
0.115257
0.106818
0.100612
0.0960889
0.092832
0.0905206
0.0889051
0.0877901
0.0870222
0.0864816
0.0860765
0.0857399
0.0854308
0.0851376
0.0848849
0.0847451
0.0848587
0.0859216
0.166914
0.275475
0.261682
0.219823
0.178862
0.147116
0.12516
0.11102
0.10237
0.097291
0.0944219
0.0928785
0.0921312
0.0918879
0.0920022
0.0924046
0.0930512
0.0938782
0.0947554
0.0954319
0.0954713
0.654974
0.313814
0.234471
0.191459
0.162429
0.141544
0.126196
0.114846
0.106459
0.100294
0.0958026
0.09257
0.0902766
0.0886745
0.0875703
0.0868125
0.0862832
0.0858923
0.0855742
0.0852881
0.0850216
0.0847963
0.0846778
0.0847962
0.0857649
0.209912
0.286202
0.265473
0.220831
0.178636
0.1465
0.124583
0.110639
0.102195
0.0972765
0.0945083
0.093015
0.0922811
0.0920274
0.0921161
0.0924824
0.0930835
0.0938544
0.0946642
0.0952647
0.0952328
0.6597
0.313766
0.23379
0.190713
0.161748
0.140956
0.125701
0.11443
0.106107
0.0999923
0.095538
0.0923315
0.090056
0.0884662
0.0873709
0.0866213
0.0861019
0.0857244
0.0854248
0.0851629
0.0849253
0.0847305
0.0846375
0.0847747
0.0857409
0.237476
0.291904
0.266309
0.220038
0.17739
0.145404
0.123862
0.110293
0.102138
0.0974041
0.0947335
0.0932743
0.0925337
0.0922492
0.0922939
0.092608
0.0931494
0.0938523
0.0945848
0.0951021
0.0949956
0.666301
0.313836
0.233008
0.189821
0.160942
0.140283
0.125157
0.113995
0.105757
0.0997042
0.0952936
0.0921159
0.0898581
0.0882787
0.0871899
0.0864459
0.0859342
0.0855691
0.0852882
0.0850522
0.0848468
0.0846871
0.0846265
0.0848088
0.0860396
0.250761
0.294118
0.264598
0.217375
0.175043
0.14381
0.123005
0.110004
0.102221
0.0976962
0.095115
0.0936685
0.0928959
0.0925565
0.0925353
0.0927782
0.0932444
0.0938663
0.0945112
0.0949384
0.0947542
0.676674
0.314321
0.232139
0.188723
0.159952
0.139482
0.124538
0.113526
0.105401
0.0994282
0.0950702
0.0919244
0.089684
0.0881126
0.087027
0.0862856
0.0857791
0.0854248
0.0851628
0.0849548
0.0847857
0.0846672
0.0846452
0.0848806
0.086477
0.261065
0.295155
0.261167
0.213145
0.171734
0.141774
0.122056
0.109811
0.102478
0.098176
0.0956673
0.0942046
0.0933697
0.0929477
0.0928371
0.092989
0.0933627
0.0938894
0.0944365
0.0947672
0.0945033
0.694113
0.316017
0.23122
0.187344
0.158716
0.138515
0.123826
0.113017
0.10504
0.0991667
0.0948712
0.0917608
0.0895372
0.0879712
0.0868855
0.0861432
0.0856393
0.0852943
0.0850512
0.0848734
0.0847459
0.0846764
0.0847013
0.0849943
0.0871388
0.269275
0.294211
0.25543
0.20721
0.167445
0.13935
0.121082
0.109769
0.102948
0.0988669
0.0964016
0.0948857
0.0939527
0.0934172
0.093192
0.0932323
0.093497
0.0939153
0.0943536
0.0945814
0.0942376
0.720098
0.318851
0.229926
0.185543
0.157175
0.137359
0.123018
0.112472
0.104679
0.0989255
0.0947022
0.0916305
0.0894235
0.087861
0.0867726
0.0860271
0.0855237
0.0851868
0.0849627
0.0848173
0.0847367
0.0847264
0.0848121
0.0851696
0.0880632
0.271917
0.287258
0.245447
0.198852
0.162056
0.136606
0.120176
0.109951
0.103673
0.0997887
0.0973228
0.0957078
0.0946364
0.0939546
0.0935887
0.0934972
0.0936371
0.0939345
0.0942552
0.0943747
0.0939511
0.756986
0.322578
0.227843
0.183109
0.155276
0.136043
0.122144
0.111911
0.104332
0.0987142
0.0945711
0.0915417
0.0893527
0.0877943
0.0867038
0.0859555
0.0854531
0.0851246
0.0849192
0.0848064
0.0847758
0.0848361
0.0850101
0.0854796
0.0893821
0.264031
0.27016
0.229512
0.187735
0.1557
0.133744
0.11949
0.110444
0.104693
0.100951
0.0984245
0.0966568
0.095404
0.094543
0.0940118
0.09377
0.093771
0.0939371
0.0941334
0.0941419
0.0936403
0.821818
0.329524
0.225214
0.180307
0.153121
0.134585
0.121233
0.111377
0.104035
0.0985584
0.0944997
0.0915161
0.0893488
0.0877984
0.0867097
0.0859621
0.0854631
0.0851434
0.0849547
0.0848698
0.0848853
0.0850276
0.0853534
0.0862768
0.0925931
0.248238
0.243991
0.208934
0.174976
0.14913
0.131199
0.119245
0.111342
0.106033
0.102346
0.0996827
0.0977047
0.0962286
0.0951587
0.0944411
0.0940339
0.0938853
0.0939128
0.0939806
0.0938779
0.0933023
0.872086
0.345316
0.224517
0.178816
0.151757
0.13349
0.120526
0.110964
0.103828
0.0984893
0.0945095
0.0915738
0.0894334
0.0878979
0.0868187
0.0860791
0.0855897
0.0852831
0.0851128
0.0850539
0.0851114
0.0853584
0.0860409
0.0900982
0.109216
0.22989
0.216134
0.188533
0.163194
0.143629
0.129552
0.119673
0.11271
0.107682
0.10393
0.10105
0.0988068
0.0970721
0.0957707
0.094852
0.0942699
0.0939655
0.0938509
0.0937896
0.0935784
0.0929353
0.907528
0.377613
0.241393
0.186168
0.154021
0.134015
0.120717
0.11106
0.103892
0.0985458
0.0945707
0.0916482
0.0895298
0.088027
0.0869951
0.0863227
0.085924
0.0857414
0.0857428
0.0859211
0.0862999
0.0869707
0.0880165
0.106803
0.168405
0.208793
0.193811
0.173323
0.154964
0.140356
0.129253
0.120894
0.114527
0.109568
0.105624
0.102451
0.0999013
0.0978858
0.0963416
0.0952168
0.0944576
0.0939971
0.0937416
0.0935544
0.0932403
0.092538
0.904991
0.388688
0.250751
0.194169
0.161427
0.139838
0.124863
0.114285
0.106884
0.101882
0.0987675
0.0971517
0.0967821
0.0975259
0.0993267
0.102115
0.105682
0.110155
0.115717
0.122507
0.130641
0.140376
0.152345
0.162826
0.192436
0.19588
0.181508
0.16539
0.151242
0.139657
0.13034
0.122811
0.116649
0.111548
0.107303
0.103787
0.100913
0.0986137
0.096831
0.0955064
0.0945767
0.0939663
0.0935763
0.0932704
0.0928622
0.0921109
0.86617
0.372279
0.249961
0.195054
0.163279
0.142207
0.127453
0.117031
0.109912
0.105404
0.10301
0.102354
0.10319
0.105384
0.108879
0.113629
0.119585
0.126843
0.135536
0.145709
0.157231
0.169803
0.182795
0.193898
0.198113
0.190843
0.176999
0.163115
0.151056
0.140927
0.132384
0.125092
0.118817
0.113419
0.108815
0.104947
0.10176
0.0991982
0.0971984
0.095693
0.0946087
0.0938617
0.0933488
0.0929352
0.0924443
0.091656
0.835135
0.35233
0.2432
0.192103
0.161983
0.142093
0.128326
0.118682
0.112167
0.108171
0.106274
0.106169
0.107655
0.110621
0.11502
0.120824
0.128021
0.13663
0.14664
0.157896
0.169967
0.181989
0.192394
0.198492
0.197077
0.188173
0.175788
0.163525
0.15259
0.143055
0.134681
0.127267
0.120705
0.114956
0.110002
0.105819
0.102367
0.099587
0.0974086
0.0957537
0.0945395
0.0936754
0.0930558
0.092549
0.0919891
0.0911768
0.830746
0.341066
0.237093
0.188719
0.160096
0.14137
0.128511
0.119596
0.113631
0.110038
0.108451
0.108619
0.110385
0.113658
0.118399
0.124584
0.132181
0.141131
0.151287
0.162313
0.173572
0.183999
0.192002
0.195586
0.193146
0.185437
0.175072
0.164318
0.154192
0.144931
0.136503
0.128861
0.122002
0.115952
0.110725
0.106312
0.102672
0.0997405
0.0974364
0.095673
0.0943603
0.0934038
0.0926974
0.0921145
0.0915011
0.0906783
0.837827
0.336237
0.23402
0.186756
0.158778
0.140622
0.128322
0.119917
0.114362
0.111065
0.109672
0.10996
0.111795
0.1151
0.119837
0.125971
0.133444
0.142137
0.15181
0.162028
0.172088
0.180966
0.187368
0.189967
0.187965
0.181952
0.173492
0.164115
0.154724
0.145722
0.137282