/*--------------------------------*- C++ -*----------------------------------*\
  =========                 |
  \\      /  F ield         | OpenFOAM: The Open Source CFD Toolbox
   \\    /   O peration     | Website:  https://openfoam.org
    \\  /    A nd           | Version:  7
     \\/     M anipulation  |
\*---------------------------------------------------------------------------*/
FoamFile
{
    version     2.0;
    format      ascii;
    class       volScalarField;
    location    "0.1";
    object      k;
}
// * * * * * * * * * * * * * * * * * * * * * * * * * * * * * * * * * * * * * //

dimensions      [0 2 -2 0 0 0 0];

internalField   nonuniform List<scalar> 
9072
(
0.00803125
0.0115316
0.0154491
0.0182016
0.0201887
0.0216769
0.0228353
0.023778
0.0245844
0.0253112
0.0260003
0.0266845
0.0273908
0.0281439
0.0289675
0.0298874
0.0309327
0.0321371
0.0335379
0.0351708
0.0370542
0.0391588
0.0413633
0.0434068
0.0448816
0.0453044
0.0442575
0.0417481
0.0386658
0.0352042
0.0317052
0.0285543
0.0261728
0.0248706
0.0241539
0.0235175
0.023198
0.0242861
0.028644
0.0346794
0.0382112
0.0392177
0.0382984
0.0354448
0.0294605
0.0189742
0.0128769
0.0246691
0.0322327
0.0373394
0.0409179
0.0435156
0.0454739
0.0470158
0.0482926
0.0494101
0.0504459
0.0514605
0.0525043
0.0536228
0.0548609
0.0562658
0.0578902
0.0597922
0.0620306
0.0646499
0.0676459
0.0709078
0.0741401
0.0768014
0.0781351
0.0773988
0.0743649
0.0693298
0.0629598
0.0566182
0.0509852
0.0464063
0.0429108
0.0401655
0.0376804
0.034087
0.0322857
0.0347739
0.0409761
0.0469375
0.0499033
0.0502966
0.0488716
0.0453195
0.0375962
0.0204404
0.0154635
0.0310691
0.0402613
0.0463707
0.0506421
0.0537494
0.0561031
0.0579684
0.0595232
0.0608917
0.0621653
0.0634156
0.0647031
0.0660832
0.0676106
0.0693435
0.0713447
0.0736817
0.0764173
0.0795887
0.0831643
0.0869745
0.0906271
0.0934547
0.0945821
0.0932404
0.0893819
0.0838553
0.0775444
0.0710063
0.064701
0.0593234
0.0551931
0.0515101
0.0489709
0.0486501
0.0501104
0.052918
0.0567267
0.0594925
0.0601469
0.0591493
0.0568297
0.0525301
0.0437967
0.0230434
0.0173284
0.0354181
0.0456188
0.0522905
0.0569356
0.0603183
0.0628908
0.0649406
0.0666591
0.0681792
0.069599
0.0709957
0.0724351
0.0739778
0.0756837
0.077616
0.0798416
0.0824286
0.0854352
0.0888834
0.092712
0.0967059
0.100415
0.103122
0.103934
0.10214
0.0978435
0.0921039
0.0858531
0.0794857
0.0733996
0.0681259
0.0635827
0.0608034
0.0609348
0.0623033
0.0634185
0.0648192
0.0667777
0.0678656
0.0673742
0.065585
0.0626855
0.0578953
0.0485728
0.0255266
0.0187734
0.0386653
0.0495896
0.0566365
0.061518
0.0650713
0.0677789
0.0699433
0.0717638
0.0733788
0.0748899
0.0763776
0.0779102
0.0795512
0.0813627
0.0834089
0.085756
0.0884675
0.091591
0.0951302
0.0989971
0.102947
0.106508
0.108972
0.109507
0.107504
0.103178
0.0976066
0.0916433
0.0856509
0.0799609
0.0745799
0.0701643
0.0701502
0.0729474
0.0748119
0.0738354
0.0730044
0.0734266
0.0735338
0.0724293
0.070229
0.0670346
0.0620044
0.0523539
0.0277434
0.019935
0.0412001
0.0526743
0.0599922
0.0650351
0.0686997
0.0714927
0.0737274
0.0756089
0.0772788
0.078841
0.0803777
0.0819586
0.0836473
0.0855061
0.0875972
0.0899823
0.0927163
0.095833
0.0993173
0.10306
0.106804
0.110091
0.112273
0.112632
0.110698
0.106746
0.101702
0.0962469
0.0907309
0.0852496
0.0799009
0.0780978
0.0804976
0.0842821
0.0842095
0.0809462
0.078722
0.0781446
0.0775601
0.0760532
0.0736442
0.0703504
0.0652644
0.0554441
0.0297187
0.0208898
0.0432365
0.0551397
0.0626621
0.06782
0.0715587
0.0744045
0.0766792
0.0785922
0.0802873
0.0818701
0.0834231
0.0850161
0.0867118
0.0885702
0.0906493
0.0930035
0.0956766
0.0986872
0.102003
0.105501
0.108927
0.111863
0.11376
0.114052
0.112428
0.109207
0.10501
0.100206
0.095126
0.0897858
0.0865119
0.0870588
0.0907888
0.093001
0.0903763
0.0858585
0.0829295
0.081642
0.0805037
0.0787049
0.0762102
0.0729487
0.0679341
0.0580472
0.031502
0.0216882
0.0449079
0.0571507
0.0648314
0.0700743
0.0738632
0.0767401
0.0790339
0.0809573
0.0826561
0.0842363
0.0857807
0.0873579
0.0890286
0.0908489
0.0928708
0.0951397
0.097687
0.100516
0.103579
0.106749
0.109785
0.112329
0.113948
0.114248
0.113095
0.110872
0.107808
0.10375
0.0991688
0.0951055
0.0936402
0.0961101
0.0993868
0.0988767
0.094493
0.0894539
0.0861326
0.0842933
0.0827034
0.0806971
0.0782025
0.0750641
0.07021
0.0603309
0.0331485
0.0223643
0.0463021
0.0588165
0.0666233
0.0719316
0.0757556
0.0786498
0.0809489
0.0828685
0.0845558
0.0861173
0.0876352
0.0891762
0.0907983
0.0925526
0.094484
0.0966279
0.0990031
0.101599
0.104356
0.107146
0.109754
0.111888
0.113236
0.113572
0.112943
0.111842
0.110149
0.107051
0.103728
0.100568
0.101044
0.104456
0.105767
0.102893
0.0974816
0.0922159
0.0886137
0.0863316
0.0843889
0.0822539
0.0798288
0.0768848
0.0722629
0.062457
0.0347215
0.0229403
0.047477
0.0602125
0.0681234
0.0734857
0.0773361
0.0802395
0.0825355
0.0844424
0.0861088
0.0876413
0.089121
0.0906126
0.0921704
0.0938401
0.0956591
0.0976526
0.0998272
0.10216
0.104583
0.106973
0.109144
0.110869
0.111949
0.112307
0.112141
0.112065
0.111866
0.110289
0.107988
0.106065
0.108294
0.111242
0.110348
0.105797
0.0997841
0.0943831
0.0905513
0.0879223
0.0857258
0.0835397
0.0812484
0.0785665
0.0742512
0.0645985
0.0362966
0.0234294
0.048469
0.0613902
0.0693926
0.0748034
0.0786767
0.0815855
0.0838744
0.0857642
0.0874048
0.0889028
0.090338
0.0917731
0.0932581
0.0948333
0.0965283
0.0983588
0.100321
0.10238
0.104465
0.10646
0.108208
0.109543
0.110361
0.1107
0.110855
0.111479
0.112431
0.112658
0.110846
0.110637
0.114192
0.116112
0.11351
0.107917
0.101569
0.0960835
0.0920729
0.0891914
0.0868375
0.0846758
0.0825832
0.0802405
0.0763305
0.0669645
0.0379718
0.0238394
0.0492991
0.0623848
0.0704742
0.0759331
0.0798291
0.0827431
0.0850241
0.0868958
0.0885092
0.0899711
0.0913603
0.0927367
0.0941466
0.0956247
0.0971933
0.0988595
0.100609
0.102402
0.104164
0.105786
0.107143
0.108121
0.10869
0.108967
0.109284
0.110218
0.111606
0.112651
0.112222
0.113727
0.118089
0.119113
0.115493
0.109378
0.102908
0.0974024
0.0932774
0.0902368
0.087815
0.0857487
0.0839226
0.0820153
0.0786598
0.0698387
0.0398828
0.024176
0.0499787
0.0632202
0.0713983
0.0769086
0.0808302
0.0837513
0.0860259
0.0878808
0.0894686
0.0908961
0.0922409
0.0935607
0.094898
0.0962823
0.0977294
0.0992386
0.100789
0.102333
0.103798
0.105086
0.106097
0.106761
0.107101
0.107283
0.107636
0.108632
0.110079
0.11133
0.11258
0.115665
0.120294
0.120608
0.116507
0.110266
0.103859
0.0984111
0.094246
0.0911333
0.0887215
0.0868134
0.0853225
0.0839692
0.0814022
0.0736336
0.042229
0.0244458
0.0505166
0.0639136
0.0721862
0.0777532
0.0817046
0.0846363
0.0869076
0.0887488
0.0903142
0.091711
0.0930159
0.0942842
0.0955551
0.0968534
0.0981893
0.0995558
0.100926
0.102249
0.103453
0.104452
0.105168
0.105564
0.105702
0.105771
0.106079
0.10702
0.108419
0.10966
0.112534
0.117116
0.121393
0.12103
0.116778
0.110684
0.104488
0.0991783
0.0950462
0.0919356
0.0895947
0.0878926
0.0867977
0.0861318
0.0847063
0.0789193
0.0453047
0.0246597
0.0509255
0.0644792
0.0728522
0.0784813
0.0824672
0.0854136
0.0876856
0.0895172
0.0910647
0.092436
0.0937069
0.0949309
0.0961442
0.0973675
0.0986064
0.0998487
0.101063
0.102197
0.10318
0.103938
0.104409
0.104584
0.104547
0.104495
0.104709
0.105527
0.106777
0.107956
0.112551
0.118455
0.121857
0.120777
0.116535
0.110753
0.104875
0.0997716
0.0957328
0.0926783
0.0904454
0.0889724
0.0883081
0.0884454
0.0886298
0.0861473
0.0495212
0.0248327
0.051225
0.0649287
0.0734042
0.0790989
0.0831229
0.0860878
0.0883645
0.0901909
0.0917257
0.0930772
0.0943211
0.0955091
0.0966749
0.0978361
0.098994
0.100133
0.101218
0.102196
0.103
0.103562
0.103835
0.103828
0.103637
0.103456
0.103545
0.104203
0.105234
0.106352
0.112949
0.11984
0.122007
0.120159
0.11598
0.110587
0.105089
0.100239
0.0963338
0.0933639
0.0912469
0.0899892
0.0897344
0.0907014
0.0929015
0.0953074
0.0557951
0.0156296
0.0244675
0.0310268
0.035329
0.037981
0.0393643
0.039541
0.0395457
0.0399522
0.039848
0.0400112
0.039569
0.0392755
0.0399256
0.0405281
0.0407948
0.0408631
0.0408605
0.0408412
0.0408208
0.040803
0.0407874
0.0407734
0.0407598
0.0407447
0.0407251
0.0406954
0.0406459
0.0405596
0.0404063
0.0401345
0.0396571
0.0388282
0.0374088
0.0350117
0.0310345
0.0246273
0.0148307
0.015933
0.0293915
0.0374638
0.0425248
0.0456178
0.0473305
0.0479781
0.048283
0.0486427
0.048679
0.0487633
0.0485141
0.0483458
0.0486972
0.0490625
0.0492351
0.0492751
0.0492621
0.049236
0.0492094
0.0491857
0.0491645
0.0491448
0.0491251
0.0491023
0.0490719
0.049026
0.0489511
0.0488243
0.0486073
0.048237
0.0476112
0.0465654
0.044835
0.0419935
0.0373447
0.0296891
0.015727
0.0173074
0.0337113
0.0428367
0.0484153
0.051822
0.0537943
0.0547764
0.0553082
0.0556981
0.0558403
0.055924
0.0558154
0.0557312
0.0559
0.0560939
0.0561877
0.0562017
0.0561803
0.0561495
0.0561188
0.0560907
0.0560647
0.0560397
0.0560135
0.0559824
0.0559407
0.0558783
0.0557786
0.0556146
0.0553424
0.0548919
0.0541525
0.0529497
0.0510061
0.0478708
0.042779
0.0342493
0.0172965
0.0188091
0.0373723
0.0472667
0.0531966
0.0568111
0.0589619
0.0601614
0.0608498
0.061288
0.0615026
0.0616102
0.061588
0.0615528
0.0616247
0.0617142
0.0617541
0.0617489
0.0617219
0.0616888
0.061656
0.0616254
0.0615964
0.0615674
0.0615359
0.0614977
0.0614455
0.0613678
0.0612456
0.0610489
0.0607302
0.0602155
0.0593903
0.0580761
0.0559902
0.0526676
0.0472904
0.0381431
0.0189019
0.0201452
0.0404792
0.0509936
0.0571816
0.0609354
0.0632011
0.0645326
0.0653207
0.0658018
0.0660631
0.0661962
0.0662234
0.0662157
0.0662413
0.0662731
0.0662801
0.0662626
0.0662323
0.0661984
0.0661651
0.0661334
0.0661026
0.0660708
0.0660352
0.0659907
0.0659291
0.0658374
0.0656949
0.0654693
0.0651108
0.0645434
0.0636511
0.0622542
0.0600677
0.0566161
0.0510354
0.0414094
0.0203391
0.0212857
0.0431639
0.0542064
0.0605903
0.0644317
0.0667606
0.0681611
0.0690034
0.0695114
0.0697986
0.0699493
0.0700025
0.0700095
0.0700142
0.0700161
0.0700045
0.0699796
0.0699476
0.0699139
0.0698808
0.0698488
0.069817
0.0697833
0.0697444
0.0696943
0.0696242
0.0695198
0.0693588
0.0691075
0.0687146
0.0681031
0.0671565
0.0656951
0.0634322
0.0598826
0.0541404
0.0441184
0.0215676
0.022266
0.0455691
0.05707
0.0635943
0.0674743
0.0698188
0.0712384
0.0720965
0.0726109
0.0729056
0.0730622
0.0731257
0.0731385
0.073133
0.0731194
0.0730972
0.0730678
0.0730348
0.0730014
0.0729687
0.0729368
0.0729045
0.0728694
0.0728275
0.0727725
0.0726946
0.0725784
0.0724007
0.0721264
0.0717034
0.0710542
0.0700623
0.0685481
0.0662232
0.0625924
0.056712
0.0463509
0.0225956
0.023134
0.04783
0.0597313
0.0663363
0.0702002
0.0725116
0.0739057
0.0747451
0.0752439
0.0755285
0.0756786
0.0757403
0.0757514
0.0757386
0.0757155
0.0756862
0.0756534
0.0756193
0.0755857
0.0755533
0.0755213
0.0754885
0.0754519
0.0754073
0.0753477
0.0752624
0.0751354
0.0749422
0.0746472
0.0741976
0.0735157
0.0724849
0.0709258
0.0685476
0.0648453
0.0588415
0.0481855
0.0234454
0.0239412
0.0500544
0.0623147
0.068936
0.0727193
0.074944
0.0762688
0.0770569
0.0775178
0.0777756
0.0779068
0.0779564
0.0779589
0.0779377
0.0779062
0.0778707
0.0778342
0.0777982
0.0777638
0.0777309
0.0776985
0.0776648
0.0776266
0.0775792
0.077515
0.0774227
0.0772853
0.077078
0.0767641
0.0762906
0.0755797
0.074515
0.0729164
0.0704905
0.0667229
0.0606067
0.049692
0.0241423
0.0247482
0.0522931
0.0649117
0.0714885
0.075117
0.0771952
0.0784067
0.0791119
0.079513
0.0797283
0.0798288
0.0798573
0.0798449
0.0798121
0.0797712
0.0797287
0.0796874
0.0796484
0.079612
0.0795777
0.0795441
0.079509
0.0794689
0.0794183
0.0793494
0.0792502
0.0791031
0.0788824
0.0785512
0.0780561
0.0773193
0.0762241
0.0745899
0.0721204
0.0682921
0.0620726
0.0509298
0.0247111
0.0256467
0.0545104
0.0675651
0.0740589
0.0774534
0.0793212
0.0803751
0.0809676
0.0812886
0.0814473
0.0815066
0.0815061
0.0814732
0.0814251
0.0813727
0.0813215
0.0812739
0.0812305
0.081191
0.0811543
0.0811187
0.0810815
0.0810388
0.0809848
0.080911
0.0808048
0.0806482
0.0804149
0.0800676
0.0795528
0.0787923
0.0776696
0.0760028
0.0734927
0.0696076
0.0632927
0.0519482
0.0251741
0.0268274
0.0565969
0.0702588
0.0766747
0.0797602
0.0813547
0.0822098
0.082663
0.0828867
0.0829769
0.0829862
0.0829503
0.082892
0.0828254
0.0827591
0.0826974
0.082642
0.0825928
0.0825489
0.0825088
0.0824703
0.0824303
0.0823844
0.0823265
0.0822474
0.0821343
0.0819683
0.081723
0.0813607
0.0808276
0.0800454
0.0788973
0.0772004
0.0746523
0.0707139
0.0643111
0.0527878
0.0255506
0.0287517
0.0584874
0.0729354
0.0793188
0.0820366
0.0833048
0.0839278
0.0842214
0.0843348
0.0843471
0.0843007
0.0842249
0.0841377
0.0840499
0.0839677
0.0838939
0.0838293
0.0837731
0.0837238
0.0836794
0.0836371
0.0835936
0.083544
0.0834816
0.0833971
0.0832768
0.0831018
0.082845
0.0824685
0.0819183
0.0811161
0.0799444
0.0782194
0.0756358
0.0716475
0.0651638
0.0534823
0.0258578
0.0323832
0.0604623
0.0755862
0.0819305
0.0842462
0.085157
0.0855287
0.0856516
0.085648
0.0855777
0.0854726
0.0853547
0.0852367
0.0851261
0.0850267
0.0849399
0.0848652
0.0848011
0.0847456
0.0846961
0.0846495
0.0846018
0.084548
0.0844809
0.0843906
0.0842632
0.0840792
0.0838114
0.0834214
0.0828553
0.0820344
0.0808409
0.0790896
0.0764727
0.0724378
0.0658803
0.0540594
0.0261109
0.0386925
0.0632845
0.0783684
0.08442
0.0863193
0.0868748
0.0869966
0.0869503
0.0868312
0.0866786
0.0865154
0.0863556
0.086207
0.0860736
0.085957
0.0858568
0.0857717
0.0856995
0.0856374
0.0855824
0.085531
0.085479
0.0854206
0.0853486
0.0852524
0.0851179
0.0849252
0.0846467
0.0842441
0.083663
0.0828247
0.0816108
0.079835
0.0771869
0.073109
0.0664846
0.0545418
0.026324
0.0469301
0.0673297
0.0814175
0.0866914
0.0881685
0.0884083
0.088305
0.0881047
0.0878791
0.0876514
0.087435
0.0872368
0.0870599
0.0869053
0.0867725
0.0866599
0.086565
0.0864849
0.0864164
0.0863561
0.0863
0.0862435
0.0861806
0.0861035
0.0860016
0.0858602
0.0856591
0.0853706
0.0849561
0.084361
0.0835064
0.0822735
0.0804748
0.0777977
0.0736802
0.0669958
0.0549478
0.0265088
0.02499
0.0514912
0.0653937
0.0740248
0.0798277
0.0839206
0.0869247
0.0892193
0.0910482
0.0925738
0.0939061
0.0951203
0.0962669
0.0973764
0.0984628
0.0995229
0.100537
0.101467
0.102259
0.10285
0.103181
0.10322
0.102988
0.102589
0.102202
0.102077
0.102478
0.103201
0.104599
0.114377
0.12225
0.122165
0.118973
0.114821
0.110047
0.105182
0.100769
0.0971072
0.0942833
0.0923203
0.0913182
0.0915512
0.0935609
0.0983953
0.105737
0.0781963
0.0251949
0.0516676
0.0657432
0.0745172
0.0804282
0.084598
0.0876536
0.0899802
0.0918265
0.0933579
0.0946858
0.0958852
0.0970048
0.0980726
0.0990991
0.100078
0.100984
0.10178
0.102411
0.102816
0.102943
0.102765
0.10231
0.101677
0.101042
0.100678
0.100825
0.101308
0.104433
0.119011
0.126264
0.123066
0.117969
0.113435
0.109139
0.104951
0.101078
0.0977467
0.0950956
0.0932246
0.0922862
0.0925755
0.094614
0.0991781
0.106115
0.104064
0.0253991
0.0517722
0.0659291
0.0747763
0.0807489
0.084969
0.0880647
0.0904224
0.092292
0.0938394
0.0951758
0.0963751
0.0974841
0.0985285
0.0995162
0.100438
0.101268
0.101966
0.10248
0.10275
0.102729
0.102396
0.101781
0.100985
0.100199
0.0997205
0.0997423
0.100124
0.107432
0.125549
0.130782
0.124789
0.117912
0.112708
0.108542
0.104813
0.101397
0.0983885
0.0959186
0.0941168
0.093149
0.0932702
0.0948684
0.0984569
0.104471
0.11027
0.0256143
0.0518601
0.0660285
0.0748874
0.0808753
0.085114
0.08823
0.090608
0.0924965
0.0940595
0.0954063
0.0966087
0.097711
0.0987367
0.0996912
0.100564
0.101328
0.101942
0.102357
0.102519
0.102383
0.101935
0.101213
0.100327
0.0994898
0.0990034
0.0990073
0.0994405
0.11234
0.132015
0.134567
0.126564
0.118397
0.112539
0.108307
0.104857
0.101809
0.0991167
0.0968621
0.0951734
0.0942141
0.0942042
0.0954393
0.0982738
0.103001
0.108906
0.0258402
0.0519546
0.0660895
0.0749143
0.0808784
0.0851047
0.0882179
0.0905996
0.0924951
0.0940654
0.0954167
0.0966175
0.0977095
0.0987135
0.099633
0.100456
0.101156
0.101693
0.10202
0.102089
0.101862
0.101333
0.100551
0.0996362
0.098825
0.0983993
0.0984601
0.0992806
0.117741
0.13735
0.137141
0.127889
0.11897
0.112641
0.108299
0.105019
0.102269
0.0998773
0.0978664
0.0963429
0.0954588
0.0954091
0.0964349
0.0987998
0.10267
0.10765
0.0260729
0.052064
0.066139
0.0748986
0.0808094
0.0849974
0.0880856
0.0904528
0.0923404
0.0939057
0.0952511
0.0964417
0.097516
0.0984924
0.0993725
0.100144
0.100779
0.101243
0.101492
0.101483
0.101187
0.100609
0.0998051
0.0989089
0.0981716
0.0978444
0.0980017
0.0999614
0.124485
0.141616
0.138771
0.128707
0.11939
0.11278
0.108354
0.105192
0.102683
0.100566
0.0988057
0.0974769
0.0967122
0.0966818
0.0975815
0.0995934
0.102746
0.106532
0.0263087
0.0521896
0.0661911
0.0748665
0.0807038
0.0848336
0.0878783
0.0902141
0.0920789
0.0936261
0.0949543
0.0961249
0.0971735
0.098116
0.0989526
0.0996702
0.100244
0.10064
0.100821
0.100749
0.100406
0.0998041
0.0990108
0.0981668
0.0975272
0.0973099
0.0975789
0.102948
0.132009
0.145025
0.139768
0.12908
0.119565
0.112821
0.108356
0.105287
0.102973
0.101096
0.0995714
0.0984393
0.0978066
0.0978137
0.0986094
0.100297
0.102796
0.105546
0.0265442
0.0523303
0.0662527
0.0748339
0.0805854
0.0846433
0.0876306
0.0899213
0.0917505
0.0932678
0.0945683
0.0957102
0.096726
0.0976296
0.0984202
0.0990848
0.0996005
0.0999367
0.10006
0.0999419
0.0995706
0.0989682
0.0982082
0.097437
0.0969015
0.0967806
0.0971219
0.109674
0.13907
0.147482
0.140161
0.129028
0.11947
0.112708
0.108251
0.105262
0.103103
0.101426
0.100108
0.0991551
0.098646
0.0986889
0.0993876
0.100784
0.102735
0.104703
0.0267771
0.0524839
0.0663266
0.0748099
0.0804694
0.0844475
0.0873679
0.0896038
0.0913874
0.0928657
0.0941303
0.0952365
0.0962144
0.0970761
0.0978202
0.0984342
0.098897
0.0991817
0.0992601
0.09911
0.0987274
0.0981412
0.0974296
0.096742
0.0963063
0.0962645
0.0966858
0.117059
0.144447
0.148761
0.139929
0.128602
0.119139
0.112444
0.108027
0.105109
0.103072
0.101556
0.10041
0.0996116
0.09921
0.0992829
0.099897
0.101051
0.102579
0.103984
0.0270055
0.0526479
0.0664131
0.074799
0.080365
0.0842596
0.0871082
0.089283
0.0910147
0.0924474
0.0936704
0.0947364
0.0956734
0.0964922
0.097191
0.097758
0.0981744
0.0984166
0.0984611
0.0982919
0.097911
0.0973525
0.0966974
0.0960956
0.09575
0.0957818
0.0964471
0.123083
0.148061
0.149056
0.139258
0.127943
0.118654
0.112065
0.107704
0.104846
0.102903
0.101515
0.100508
0.0998378
0.0995275
0.0996279
0.100177
0.101146
0.102362
0.103377
0.0272282
0.0528198
0.0665113
0.0748029
0.0802769
0.0840879
0.0868628
0.0889736
0.0906498
0.0920335
0.0932116
0.094235
0.0951301
0.0959065
0.0965625
0.0970872
0.0974637
0.0976719
0.0976925
0.0975143
0.0971445
0.0966208
0.0960249
0.095505
0.0952396
0.0953395
0.0964623
0.129237
0.150626
0.148908
0.138469
0.127228
0.118104
0.111616
0.107307
0.104498
0.10263
0.101341
0.100447
0.0998826
0.0996504
0.0997787
0.100284
0.101122
0.102119
0.102869
0.0274441
0.0529976
0.0666196
0.0748216
0.0802073
0.0839367
0.0866385
0.088685
0.0903045
0.0916377
0.09277
0.0937503
0.0946038
0.0953397
0.0959561
0.0964434
0.0967865
0.0969681
0.0969729
0.0967937
0.0964413
0.0959559
0.0954184
0.094974
0.0947803
0.0949511
0.0970894
0.13557
0.152735
0.148801
0.137821
0.12658
0.117551
0.111132
0.106863
0.104095
0.102285
0.101076
0.100274
0.0997982
0.0996339
0.0997924
0.100274
0.101024
0.101873
0.102444
0.0276527
0.0531793
0.0667364
0.0748543
0.0801562
0.0838075
0.0864386
0.0884222
0.0899857
0.091269
0.0923557
0.0932938
0.0941074
0.0948053
0.0953859
0.0958404
0.0961558
0.0963174
0.0963127
0.0961381
0.095807
0.0953608
0.094879
0.0945018
0.0943718
0.0946315
0.099487
0.142046
0.154887
0.149007
0.137404
0.126027
0.117011
0.110628
0.106392
0.10366
0.101901
0.100758
0.100032
0.0996308
0.0995267
0.0997175
0.100191
0.100887
0.101637
0.102086
0.0278536
0.0533635
0.0668601
0.0748994
0.0801229
0.0837005
0.0862643
0.0881874
0.089697
0.0909318
0.0919746
0.0928723
0.0936483
0.0943111
0.0948595
0.0952857
0.0955784
0.095725
0.0957158
0.0955497
0.0952421
0.0948345
0.0944042
0.0940853
0.0940079
0.0943627
0.106131
0.148579
0.157238
0.149459
0.137117
0.125507
0.11646
0.110106
0.105906
0.103214
0.101502
0.100416
0.0997546
0.0994173
0.099367
0.0995909
0.100068
0.100731
0.101416
0.101781
0.0280464
0.053549
0.066989
0.0749555
0.080106
0.0836145
0.086115
0.0879809
0.0894392
0.090628
0.0916292
0.0924888
0.0932298
0.0938606
0.0943803
0.0947821
0.0950562
0.095192
0.0951818
0.0950266
0.0947433
0.0943729
0.0939901
0.0937205
0.0936806
0.0940695
0.117468
0.154449
0.159288
0.149774
0.136733
0.124916
0.115864
0.109561
0.105416
0.102771
0.101106
0.100072
0.0994665
0.0991847
0.0991822
0.0994384
0.0999252
0.100571
0.10121
0.101515
0.028231
0.0537345
0.0671217
0.0750208
0.0801037
0.0835481
0.0859895
0.0878018
0.089212
0.0903575
0.0913196
0.0921437
0.0928525
0.0934543
0.0939485
0.0943294
0.0945882
0.0947162
0.0947075
0.0945648
0.0943055
0.0939705
0.0936316
0.0934044
0.0933941
0.0937904
0.127802
0.158598
0.160418
0.149587
0.136073
0.124181
0.115202
0.108996
0.104929
0.102343
0.100727
0.0997415
0.099185
0.0989513
0.0989908
0.0992771
0.099776
0.100411
0.101019
0.101278
0.0284074
0.0539192
0.0672569
0.0750937
0.0801142
0.0834993
0.0858859
0.0876484
0.0890137
0.0901188
0.0910446
0.0918359
0.0925152
0.0930908
0.0935625
0.0939252
0.0941716
0.0942941
0.0942886
0.0941588
0.0939229
0.093621
0.0933227
0.0931337
0.0931569
0.0936832
0.133736
0.161029
0.160593
0.148854
0.135116
0.123302
0.114484
0.108421
0.104455
0.101938
0.100374
0.0994335
0.0989207
0.0987288
0.0988048
0.0991176
0.0996284
0.100257
0.100839
0.10106
0.0285755
0.0541023
0.0673933
0.0751728
0.0801359
0.0834663
0.0858022
0.0875186
0.0888423
0.0899101
0.0908023
0.0915634
0.0922157
0.0927676
0.0932193
0.0935664
0.0938024
0.0939212
0.0939199
0.0938031
0.0935895
0.0933183
0.0930571
0.0929017
0.0929579
0.0936539
0.13872
0.162695
0.160227
0.147763
0.133957
0.122331
0.113739
0.107852
0.104004
0.101563
0.100051
0.0991541
0.0986802
0.0985244
0.0986314
0.0989666
0.0994871
0.10011
0.100669
0.100857
0.0287352
0.0542831
0.0675301
0.0752567
0.0801671
0.0834472
0.0857365
0.0874104
0.0886957
0.0897289
0.0905901
0.0913235
0.0919513
0.0924818
0.0929157
0.0932492
0.0934767
0.0935931
0.0935965
0.0934925
0.0932999
0.0930571
0.0928297
0.092705
0.0927928
0.0937244
0.143335
0.164041
0.159607
0.14649
0.132705
0.121334
0.113003
0.10731
0.103586
0.101222
0.0997633
0.0989063
0.0984673
0.0983423
0.0984751
0.0988281
0.0993551
0.0999702
0.100508
0.100664
0.0288866
0.0544611
0.0676662
0.0753441
0.0802062
0.0834403
0.0856868
0.0873215
0.0885714
0.0895728
0.0904055
0.0911135
0.0917189
0.0922301
0.0926481
0.0929697
0.0931901
0.0933051
0.0933135
0.0932219
0.093049
0.0928326
0.0926362
0.09254
0.0926596
0.093941
0.147468
0.165019
0.158775
0.145127
0.131446
0.12037
0.112311
0.106812
0.10321
0.100921
0.0995119
0.0986923
0.098284
0.0981851
0.0983386
0.0987046
0.0992342
0.0998391
0.100353
0.100479
0.0290299
0.0546359
0.0678012
0.0754343
0.0802522
0.0834441
0.0856514
0.0872502
0.0884675
0.0894396
0.090246
0.0909307
0.0915155
0.0920093
0.092413
0.0927242
0.0929387
0.0930529
0.0930666
0.0929867
0.0928322
0.0926401
0.0924722
0.0924032
0.0925583
0.0944147
0.150937
0.165541
0.157754
0.143762
0.130268
0.119497
0.111696
0.106371
0.10288
0.100661
0.0992988
0.0985134
0.0981321
0.0980548
0.098224
0.0985982
0.099126
0.0997173
0.100206
0.100301
0.0291652
0.0548075
0.0679346
0.0755264
0.0803039
0.0834574
0.0856288
0.0871946
0.088382
0.089327
0.0901092
0.0907724
0.0913385
0.0918162
0.0922072
0.0925091
0.0927185
0.0928325
0.0928515
0.0927827
0.0926453
0.0924755
0.0923337
0.0922916
0.0924887
0.0953352
0.153957
0.165719
0.156707
0.142547
0.12927
0.118768
0.111179
0.106
0.102603
0.100446
0.0991261
0.0983717
0.0980137
0.0979535
0.0981333
0.0985103
0.0990315
0.0996053
0.100066
0.100128
0.0292933
0.0549763
0.0680664
0.0756201
0.0803608
0.0834792
0.0856178
0.0871534
0.0883132
0.0892333
0.0899931
0.0906364
0.091185
0.091648
0.0920273
0.0923209
0.092526
0.0926402
0.0926644
0.0926061
0.0924844
0.0923349
0.0922168
0.092202
0.0924545
0.0971706
0.156979
0.165952
0.155957
0.141678
0.128545
0.118219
0.110774
0.105701
0.10238
0.100278
0.0989968
0.0982701
0.0979314
0.0978833
0.0980683
0.0984428
0.0989521
0.0995038
0.0999332
0.0999614
0.0294151
0.0551434
0.0681972
0.0757156
0.0804225
0.0835089
0.0856175
0.0871254
0.0882597
0.0891567
0.0898957
0.0905204
0.0910528
0.091502
0.0918703
0.0921564
0.0923576
0.0924723
0.0925017
0.0924534
0.0923461
0.0922148
0.0921177
0.0921301
0.09246
0.101121
0.160742
0.166842
0.155857
0.141304
0.128133
0.11785
0.110475
0.105473
0.102214
0.100161
0.0989154
0.0982128
0.0978886
0.0978471
0.0980312
0.0983968
0.0988886
0.0994131
0.0998074
0.0997993
0.0295334
0.0553112
0.0683286
0.0758135
0.0804892
0.0835462
0.0856274
0.0871098
0.0882207
0.0890962
0.0898157
0.0904228
0.0909396
0.0913757
0.0917335
0.0920123
0.09221
0.0923255
0.0923601
0.0923214
0.0922276
0.0921125
0.0920328
0.0920686
0.0924914
0.109815
0.165772
0.168738
0.156497
0.141382
0.127968
0.117614
0.110257
0.105308
0.102106
0.1001
0.098888
0.098205
0.0978896
0.0978477
0.0980237
0.0983736
0.0988413
0.0993332
0.0996881
0.0996413
0.0296533
0.055485
0.0684638
0.0759156
0.0805616
0.0835913
0.0856472
0.0871062
0.0881955
0.089051
0.0897519
0.0903422
0.0908439
0.0912669
0.0916142
0.0918856
0.0920798
0.0921961
0.092236
0.092207
0.0921264
0.0920261
0.0919598
0.092008
0.0924718
0.125569
0.171534
0.171175
0.157477
0.141629
0.12788
0.117426
0.110087
0.105199
0.102062
0.100105
0.0989226
0.0982534
0.0979388
0.0978882
0.0980477
0.0983739
0.0988104
0.0992636
0.0995744
0.0994863
0.0297862
0.0556764
0.0686098
0.0760258
0.0806416
0.083645
0.0856774
0.0871149
0.0881841
0.0890209
0.0897041
0.0902777
0.0907641
0.0911735
0.0915098
0.0917734
0.0919638
0.0920807
0.0921261
0.0921073
0.0920402
0.0919547
0.0919001
0.0919512
0.0923715
0.14297
0.176407
0.173068
0.158101
0.141644
0.127666
0.117198
0.109937
0.105147
0.10209
0.100185
0.099029
0.0983649
0.0980408
0.0979711
0.0981042
0.0983976
0.098795
0.0992029
0.0994649
0.0993327
0.0299529
0.055907
0.0687794
0.0761508
0.0807328
0.0837092
0.0857189
0.0871366
0.0881874
0.0890065
0.0896724
0.090229
0.0906993
0.0910941
0.0914182
0.0916729
0.0918586
0.0919759
0.0920272
0.0920193
0.0919671
0.0918979
0.0918568
0.0919167
0.0923322
0.15397
0.179046
0.173616
0.157863
0.141141
0.127189
0.116881
0.109803
0.105163
0.102207
0.100356
0.0992178
0.0985464
0.0981997
0.0980982
0.0981933
0.0984439
0.0987935
0.0991491
0.0993573
0.0991786
0.0301911
0.0562159
0.0689961
0.0763028
0.0808411
0.083787
0.085774
0.0871731
0.088207
0.0890091
0.0896576
0.0901965
0.0906492
0.0910277
0.0913378
0.091582
0.0917619
0.091879
0.0919362
0.0919404
0.0919051
0.091855
0.0918309
0.0919117
0.0924388
0.158678
0.179806
0.172874
0.156692
0.140061
0.12643
0.116478
0.109697
0.105263
0.102427
0.100629
0.0994969
0.0988031
0.0984181
0.0982699
0.098314
0.0985107
0.0988033
0.0990995
0.0992489
0.0990213
0.0305666
0.0566573
0.0692992
0.0765047
0.0809786
0.0838849
0.0858469
0.0872276
0.0882453
0.0890308
0.0896614
0.0901811
0.0906143
0.0909741
0.0912679
0.0914996
0.0916722
0.0917883
0.0918518
0.0918694
0.0918537
0.0918262
0.0918227
0.0919278
0.0926072
0.161839
0.179739
0.171228
0.154737
0.138478
0.125429
0.116022
0.109648
0.105471
0.102768
0.101014
0.0998714
0.0991363
0.0986949
0.0984841
0.0984636
0.0985944
0.0988206
0.0990503
0.0991364
0.0988583
0.0311773
0.0572869
0.0697266
0.0767832
0.0811625
0.0840144
0.085945
0.0873054
0.0883063
0.0890745
0.0896857
0.0901842
0.0905956
0.0909344
0.0912095
0.0914267
0.0915905
0.091705
0.0917749
0.0918076
0.0918146
0.0918143
0.0918361
0.0919674
0.0928759
0.164133
0.178835
0.168615
0.152014
0.136432
0.124243
0.115567
0.109699
0.105815
0.103244
0.101519
0.100343
0.0995441
0.0990262
0.0987358
0.0986365
0.0986903
0.0988408
0.0989969
0.0990155
0.0986862
0.0320341
0.0582507
0.0703368
0.0771629
0.0814091
0.0841877
0.0860769
0.087412
0.0883931
0.0891417
0.0897316
0.090207
0.0905946
0.0909106
0.0911657
0.0913674
0.0915217
0.0916342
0.0917109
0.0917601
0.0917931
0.0918261
0.0918809
0.0920423
0.0932725
0.164715
0.175961
0.16446
0.148339
0.133942
0.122952
0.115189
0.109901
0.106324
0.10387
0.102146
0.100909
0.10002
0.0994042
0.0990169
0.0988252
0.0987911
0.0988576
0.0989342
0.098882
0.0985015
0.0332725
0.0597691
0.0712654
0.0777336
0.0817655
0.0844257
0.0862527
0.0875517
0.0885065
0.089232
0.0897985
0.09025
0.090614
0.0909081
0.0911443
0.0913317
0.0914777
0.0915889
0.0916729
0.0917391
0.0918002
0.0918728
0.0919753
0.0921917
0.0938863
0.162217
0.169883
0.158266
0.143685
0.131148
0.121703
0.114993
0.110315
0.107025
0.104652
0.10289
0.101557
0.100552
0.0998167
0.0993162
0.0990197
0.0988884
0.0988642
0.0988569
0.0987321
0.0983013
0.0359123
0.0622075
0.0726204
0.078626
0.0823517
0.0848101
0.0865177
0.0877471
0.0886588
0.0893532
0.0898935
0.0903216
0.0906646
0.0909405
0.0911621
0.091339
0.0914792
0.0915904
0.0916807
0.0917612
0.0918482
0.091967
0.0921507
0.0925915
0.0954346
0.15782
0.161041
0.150606
0.138599
0.128455
0.120747
0.115111
0.110997
0.107932
0.10558
0.103732
0.102268
0.10112
0.100246
0.0996193
0.0992081
0.0989727
0.098853
0.0987594
0.0985618
0.0980834
0.0365091
0.0628822
0.0728391
0.0791871
0.082947
0.0852733
0.0868625
0.0880108
0.0888668
0.0895215
0.0900329
0.0904383
0.0907637
0.0910263
0.0912386
0.09141
0.0915488
0.0916626
0.0917599
0.0918526
0.0919618
0.0921388
0.0925144
0.0945407
0.103396
0.153654
0.152059
0.143372
0.134233
0.126483
0.120381
0.115663
0.111977
0.109031
0.106625
0.104641
0.103011
0.101697
0.100671
0.0999084
0.0993767
0.0990334
0.0988165
0.0986364
0.098368
0.0978458
0.0372497
0.063595
0.0733312
0.0796421
0.0832347
0.0853919
0.086931
0.0880576
0.0889048
0.0895579
0.0900728
0.0904861
0.0908239
0.0911049
0.0913434
0.0915515
0.091739
0.0919178
0.092103
0.0923146
0.0925818
0.0929655
0.0935157
0.103158
0.132072
0.149701
0.145616
0.138589
0.131697
0.125746
0.120799
0.116688
0.113225
0.110269
0.10773
0.105564
0.103743
0.10225
0.101065
0.100164
0.0995108
0.09906
0.0987471
0.0984832
0.098148
0.0975874
0.0368538
0.0630288
0.0723812
0.0795858
0.0841538
0.0869387
0.0887118
0.0899706
0.0910153
0.0920292
0.0931266
0.094355
0.0957531
0.0973699
0.0992567
0.101427
0.10381
0.106486
0.109561
0.113105
0.11717
0.121867
0.127446
0.131894
0.145755
0.148172
0.143125
0.137003
0.131313
0.126321
0.121956
0.11809
0.114636
0.111549
0.108815
0.106436
0.104413
0.10274