/*--------------------------------*- C++ -*----------------------------------*\
  =========                 |
  \\      /  F ield         | OpenFOAM: The Open Source CFD Toolbox
   \\    /   O peration     | Website:  https://openfoam.org
    \\  /    A nd           | Version:  7
     \\/     M anipulation  |
\*---------------------------------------------------------------------------*/
FoamFile
{
    version     2.0;
    format      ascii;
    class       volScalarField;
    location    "0.1";
    object      nut;
}
// * * * * * * * * * * * * * * * * * * * * * * * * * * * * * * * * * * * * * //

dimensions      [0 2 -1 0 0 0 0];

internalField   nonuniform List<scalar> 
9072
(
3.89368e-05
3.51736e-05
4.1009e-05
4.46903e-05
4.72209e-05
4.90726e-05
5.04966e-05
5.1645e-05
5.26166e-05
5.34794e-05
5.42818e-05
5.50609e-05
5.58465e-05
5.6664e-05
5.7537e-05
5.84889e-05
5.95438e-05
6.07269e-05
6.20635e-05
6.35736e-05
6.52631e-05
6.71075e-05
6.90287e-05
7.08719e-05
7.24008e-05
7.33288e-05
7.33132e-05
7.17604e-05
6.95512e-05
6.67174e-05
6.34328e-05
5.99754e-05
5.64027e-05
5.41388e-05
5.32951e-05
5.23723e-05
5.08524e-05
4.82196e-05
4.98505e-05
0.000237
0.000257752
0.000266703
0.000261962
0.000242916
0.000201536
0.000128036
7.74411e-05
0.000225506
0.000317322
0.00037697
0.000417677
0.000446448
0.000467355
0.000482956
0.000494952
0.000504533
0.000512569
0.00051973
0.000526552
0.00053349
0.000540943
0.000549278
0.000558832
0.000569888
0.000582603
0.000596866
0.000612092
0.000626956
0.00063912
0.000645082
0.000640369
0.000620507
0.000583443
0.000526927
0.000452318
0.00039146
0.000349284
0.000320683
0.000297071
0.00027278
0.000251537
0.000200989
0.000161758
0.000165275
0.000217607
0.000369088
0.000471279
0.000504065
0.000490864
0.000444004
0.00034841
0.000101449
8.52841e-05
0.000344275
0.000540083
0.000685671
0.000794947
0.000877556
0.0009405
0.000988994
0.00102699
0.00105752
0.00108297
0.00110523
0.00112584
0.0011461
0.00116709
0.00118975
0.00121488
0.00124302
0.00127433
0.00130822
0.001343
0.00137538
0.00140001
0.00140923
0.00139335
0.00134258
0.00125256
0.00112801
0.000979466
0.000842094
0.000731252
0.000646604
0.00058121
0.000514503
0.000473264
0.00045542
0.000435334
0.000441656
0.00050995
0.000632295
0.00071753
0.000738711
0.000704666
0.000622597
0.000467621
0.000108473
9.05703e-05
0.000422842
0.000704471
0.000930678
0.00111082
0.00125317
0.00136515
0.00145328
0.00152314
0.00157941
0.00162599
0.00166609
0.0017024
0.00173711
0.00177207
0.00180879
0.00184842
0.00189165
0.00193846
0.00198774
0.00203682
0.00208097
0.00211283
0.00212199
0.00209511
0.00201801
0.0018832
0.00169795
0.00148017
0.00126867
0.00108913
0.000948454
0.000831598
0.000758133
0.000738666
0.000730565
0.000720793
0.0007355
0.00080498
0.000901461
0.0009634
0.000964473
0.000904768
0.000784283
0.000567078
0.000114423
9.44866e-05
0.000482316
0.000835941
0.00113445
0.001382
0.001584
0.00174683
0.0018772
0.00198158
0.00206589
0.00213535
0.00219441
0.00224685
0.00229579
0.00234379
0.00239289
0.00244453
0.00249943
0.00255739
0.00261684
0.0026745
0.00272484
0.00275951
0.00276672
0.00273092
0.00263446
0.00246539
0.00222847
0.00194483
0.00166333
0.00142115
0.00121494
0.00105774
0.00102455
0.00103746
0.00104433
0.00102843
0.0010361
0.00109402
0.00116716
0.0012053
0.00118315
0.00109493
0.00093344
0.000651851
0.000119346
9.75447e-05
0.000531018
0.00094698
0.0013104
0.00162083
0.00188055
0.00209416
0.00226776
0.00240812
0.00252194
0.00261546
0.00269424
0.00276305
0.0028259
0.00288601
0.00294588
0.00300722
0.00307077
0.00313618
0.0032016
0.00326345
0.00331595
0.00335054
0.00335509
0.00331308
0.00320413
0.00301055
0.00272879
0.00238337
0.00203908
0.00172972
0.00146399
0.00135674
0.00135458
0.00138517
0.00137978
0.00134451
0.0013405
0.00138222
0.00143176
0.00144522
0.00139763
0.00127829
0.00107304
0.00072532
0.000123514
0.000100012
0.000572714
0.0010437
0.00146561
0.00183428
0.00214907
0.00241247
0.00262948
0.00280664
0.00295102
0.00306959
0.00316881
0.00325432
0.00333091
0.00340246
0.0034719
0.00354117
0.00361109
0.0036812
0.00374957
0.00381259
0.00386459
0.00389737
0.00389924
0.00385377
0.00373886
0.00353048
0.00321045
0.00281103
0.00240769
0.0020326
0.00182247
0.00174713
0.00175307
0.00176301
0.00172188
0.00166678
0.00164975
0.00167247
0.0016975
0.00168522
0.00161019
0.00145703
0.00120507
0.000789959
0.000127151
0.000102051
0.000609296
0.00112921
0.00160381
0.00202612
0.00239294
0.00270458
0.00296463
0.00317897
0.00335467
0.00349915
0.00361951
0.00372216
0.00381259
0.00389524
0.00397348
0.00404949
0.00412421
0.0041972
0.00426656
0.00432884
0.00437877
0.00440883
0.00440835
0.00436193
0.00424727
0.00403506
0.00368842
0.00324539
0.00279746
0.00247179
0.0022827
0.00220916
0.00219206
0.0021478
0.00206805
0.00199543
0.00196403
0.00196613
0.00196606
0.00192709
0.00182258
0.00163279
0.0013312
0.000847908
0.000130436
0.00010376
0.00064174
0.0012051
0.00172695
0.00219835
0.00261393
0.00297188
0.00327415
0.00352567
0.00373319
0.00390426
0.00404646
0.00416676
0.00427128
0.00436498
0.00445164
0.00453373
0.00461234
0.00468715
0.00475642
0.00481697
0.00486407
0.00489109
0.00488876
0.00484353
0.00473511
0.00453284
0.00418276
0.00371955
0.00333644
0.00301731
0.00281554
0.00271652
0.00263639
0.00253185
0.00241872
0.0023299
0.00228297
0.00226387
0.0022386
0.00217211
0.00203613
0.00180694
0.00145302
0.000901241
0.000133528
0.000105203
0.0006705
0.00127213
0.00183606
0.00235209
0.00281301
0.00321501
0.0035583
0.00384664
0.00408616
0.00428434
0.00444895
0.00458744
0.00470639
0.0048113
0.00490632
0.00499422
0.00507633
0.00515251
0.00522126
0.00527977
0.0053239
0.00534802
0.00534439
0.00530205
0.00520518
0.00502957
0.00472189
0.00432206
0.00399666
0.00364449
0.00339053
0.00322392
0.00306976
0.00291312
0.0027728
0.00266886
0.00260609
0.00256603
0.00251578
0.00242105
0.00225171
0.00198056
0.00157212
0.0009521
0.00013659
0.000106417
0.000695682
0.0013306
0.00193171
0.00248802
0.00299081
0.00343437
0.00381716
0.00414158
0.00441299
0.0046385
0.00482594
0.00498305
0.00511683
0.00523319
0.00533668
0.00543041
0.00551597
0.00559349
0.00566176
0.00571837
0.00575982
0.00578143
0.0057771
0.00573873
0.00565647
0.00552088
0.00531131
0.00512473
0.00471069
0.004283
0.00395025
0.00370363
0.00348567
0.00328943
0.00312814
0.00301076
0.00293278
0.00287255
0.00279777
0.00267413
0.00246969
0.00215444
0.00168998
0.00100282
0.000139806
0.000107425
0.000717154
0.00138059
0.00201428
0.00260673
0.00314792
0.00363039
0.00405086
0.00441032
0.00471313
0.00496592
0.00517638
0.0053524
0.0055013
0.00562935
0.0057415
0.00584119
0.00593035
0.00600939
0.00607745
0.00613254
0.00617178
0.00619144
0.00618691
0.00615284
0.00608486
0.00598683
0.0058703
0.005801
0.00536763
0.00486566
0.0044556
0.00414519
0.00388192
0.00365879
0.00348271
0.00335424
0.00326232
0.00318304
0.00308418
0.00293105
0.00268999
0.00232894
0.00180782
0.00105607
0.000143412
0.000108246
0.000734671
0.00142219
0.00208424
0.00270895
0.00328513
0.00380374
0.00425984
0.00465295
0.00498637
0.00526605
0.00549944
0.00569444
0.00585859
0.00599849
0.00611945
0.00622526
0.00631818
0.00639898
0.00646714
0.00652113
0.00655865
0.00657684
0.00657244
0.00654233
0.00648571
0.00641059
0.00633468
0.00631015
0.00590978
0.00536742
0.00490649
0.00455241
0.00425998
0.00402057
0.00383524
0.00369825
0.00359395
0.00349674
0.0033742
0.00319101
0.00291203
0.0025039
0.00192633
0.00111486
0.000147737
0.000108901
0.000748062
0.00145564
0.00214226
0.00279562
0.00340351
0.00395544
0.00444492
0.00487003
0.00523292
0.0055388
0.00579473
0.00600852
0.00618785
0.0063396
0.00646939
0.00658137
0.00667815
0.00676085
0.00682935
0.00688254
0.00691869
0.00693572
0.00693152
0.00690457
0.00685579
0.00679107
0.00672464
0.00672009
0.00635401
0.00580337
0.00531642
0.00493332
0.00462316
0.00437536
0.00418522
0.00404201
0.00392677
0.00381258
0.00366664
0.00345288
0.00313492
0.00267875
0.00204578
0.00118258
0.000153229
0.000109424
0.000757451
0.00148151
0.00218935
0.00286804
0.00350448
0.0040869
0.00460737
0.00506256
0.0054535
0.00578457
0.00606234
0.00629447
0.00648869
0.00665207
0.00679055
0.00690862
0.00700922
0.00709385
0.00716275
0.00721526
0.00725016
0.00726611
0.00726194
0.00723715
0.00719327
0.00713336
0.00707156
0.00707395
0.00673022
0.00619522
0.00569905
0.00529605
0.00497546
0.00472454
0.00453271
0.00438498
0.00425984
0.00412934
0.00396021
0.00371556
0.00335793
0.00285313
0.002167
0.00126288
0.000160464
0.000109852
0.000763459
0.00150084
0.00222685
0.00292783
0.0035898
0.00419989
0.00474884
0.00523203
0.00564933
0.00600429
0.00630293
0.00655267
0.00676123
0.00693585
0.0070827
0.00720659
0.00731082
0.00739723
0.00746644
0.00751819
0.0075518
0.00756654
0.00756201
0.00753833
0.00749702
0.00743798
0.00738022
0.00738734
0.007054
0.00655416
0.00606201
0.00564657
0.00532045
0.00506966
0.00487799
0.00472668
0.00459224
0.00444587
0.00425381
0.00397841
0.0035812
0.0030283
0.00229403
0.00136405
0.00017051
0.000103774
0.000164092
0.000209004
0.000238663
0.000257126
0.000267003
0.000269106
0.000269532
0.000271931
0.000271592
0.00027236
0.000269856
0.00026802
0.000271654
0.000275476
0.000277319
0.000277832
0.000277831
0.000277698
0.000277552
0.000277423
0.00027731
0.000277208
0.000277109
0.000276997
0.000276852
0.000276631
0.000276265
0.000275631
0.000274514
0.000272552
0.000269136
0.000263263
0.000253301
0.00023663
0.000209196
0.000165277
9.53915e-05
9.61859e-05
0.000304051
0.000434308
0.000519805
0.000574959
0.0006081
0.000625803
0.000635162
0.000640296
0.000641622
0.000640937
0.000636905
0.000634089
0.00063721
0.000641487
0.000643695
0.000644105
0.000643726
0.000643161
0.000642628
0.000642177
0.000641799
0.000641462
0.000641124
0.000640714
0.000640121
0.000639163
0.000637537
0.000634756
0.000630042
0.000622187
0.000609375
0.000588936
0.000556989
0.000507806
0.000432377
0.000313173
9.56038e-05
0.000100443
0.000404767
0.000626672
0.000783659
0.000891637
0.000961484
0.00100328
0.0010277
0.00104141
0.0010468
0.00104721
0.00104209
0.00103852
0.00104249
0.00104799
0.00105083
0.00105121
0.00105046
0.00104944
0.00104849
0.00104769
0.00104702
0.00104641
0.00104575
0.00104489
0.00104357
0.00104138
0.00103765
0.00103134
0.00102081
0.00100367
0.000976407
0.000934196
0.000870441
0.000776094
0.0006378
0.00043074
0.000100511
0.000104879
0.000480679
0.000783725
0.00101261
0.00117934
0.00129375
0.00136684
0.00141206
0.0014389
0.00145159
0.00145554
0.00145156
0.00144836
0.00145274
0.0014587
0.00146176
0.00146201
0.00146091
0.00145948
0.00145817
0.00145706
0.00145611
0.0014552
0.00145416
0.00145269
0.00145035
0.00144643
0.00143979
0.00142868
0.00141045
0.00138128
0.00133586
0.00126711
0.00116594
0.00102074
0.00081587
0.000524705
0.000105286
0.000108725
0.000543232
0.000916669
0.00121311
0.0014398
0.00160335
0.00171362
0.00178485
0.0018287
0.00185183
0.0018616
0.00186086
0.0018591
0.00186327
0.0018687
0.00187138
0.00187128
0.0018698
0.00186801
0.00186637
0.00186497
0.00186374
0.00186249
0.00186095
0.00185868
0.00185498
0.00184877
0.00183835
0.00182114
0.00179337
0.00174972
0.00168305
0.00158422
0.00144211
0.00124358
0.000972504
0.0006034
0.000109414
0.000111957
0.000597527
0.00103203
0.0013906
0.00167662
0.00189223
0.00204432
0.00214612
0.00221064
0.00224711
0.00226486
0.00226904
0.0022696
0.00227345
0.00227786
0.00227975
0.00227913
0.00227726
0.00227512
0.00227317
0.00227148
0.00226993
0.00226827
0.00226609
0.00226277
0.00225732
0.0022482
0.00223306
0.00220842
0.0021693
0.00210885
0.00201821
0.00188645
0.00170099
0.00144809
0.00111238
0.000670881
0.000112854
0.000114715
0.000645661
0.00113214
0.00154717
0.00189134
0.00216112
0.00235883
0.0024953
0.00258401
0.00263659
0.00266436
0.00267487
0.00267855
0.00268246
0.00268585
0.00268686
0.00268567
0.00268339
0.00268091
0.00267865
0.00267666
0.00267475
0.00267257
0.00266959
0.00266493
0.00265727
0.00264456
0.00262373
0.00259031
0.00253805
0.00245865
0.00234162
0.0021746
0.0019441
0.00163652
0.00123813
0.000729167
0.000115683
0.00011715
0.000687775
0.00121638
0.00168232
0.00208356
0.00240945
0.00265617
0.00283104
0.0029473
0.00301866
0.00305844
0.00307657
0.00308419
0.00308882
0.00309155
0.00309182
0.0030901
0.00308744
0.00308464
0.00308208
0.00307974
0.0030774
0.0030746
0.0030706
0.0030643
0.00305395
0.00303694
0.00300941
0.00296585
0.00289877
0.00279842
0.0026529
0.00244876
0.00217211
0.00181011
0.00135124
0.000779514
0.000117996
0.000119397
0.000721799
0.001282
0.00179397
0.0022518
0.00263593
0.00293489
0.00315162
0.00329861
0.00339126
0.00344495
0.00347195
0.00348439
0.00349054
0.00349317
0.00349298
0.00349088
0.0034879
0.00348481
0.00348194
0.00347923
0.00347638
0.00347281
0.00346759
0.00345929
0.00344575
0.00342372
0.00338849
0.00333352
0.00325003
0.00312697
0.00295122
0.00270856
0.00238518
0.0019695
0.00145266
0.000822897
0.000119882
0.000121587
0.000742929
0.00132487
0.00187957
0.00239447
0.0028393
0.00319362
0.00345536
0.00363594
0.00375223
0.00382158
0.00385864
0.00387681
0.00388533
0.00388851
0.00388826
0.00388596
0.00388276
0.00387943
0.00387624
0.00387313
0.00386969
0.0038652
0.00385852
0.00384789
0.00383064
0.00380288
0.00375901
0.00369142
0.00359012
0.00344285
0.00323552
0.00295344
0.00258327
0.00211514
0.00154317
0.000860166
0.000121419
0.000123915
0.000744219
0.00134111
0.00193749
0.00251089
0.00301906
0.00343156
0.00374099
0.00395757
0.00409954
0.00418604
0.00423428
0.00425907
0.0042708
0.00427521
0.00427532
0.00427306
0.00426976
0.00426623
0.00426275
0.00425919
0.00425508
0.00424953
0.00424117
0.00422785
0.00420641
0.00417223
0.00411885
0.00403757
0.00391728
0.00374461
0.00350473
0.00318281
0.00276634
0.00224747
0.00162354
0.000892098
0.000122673
0.000126825
0.000719918
0.00132937
0.00196868
0.00260249
0.0031762
0.00364896
0.00400797
0.00426228
0.00443145
0.00453629
0.00459668
0.00462892
0.00464463
0.0046509
0.0046518
0.00464984
0.00464659
0.00464292
0.00463916
0.00463513
0.00463026
0.00462352
0.00461325
0.00459692
0.00457082
0.00452962
0.00446594
0.00437007
0.00422983
0.00403092
0.00375796
0.00339628
0.00293448
0.00236699
0.00169455
0.0009194
0.000123697
0.000131484
0.000671074
0.00129356
0.00197822
0.00267372
0.0033138
0.00384744
0.00425667
0.00454948
0.00474655
0.00487067
0.00494396
0.00498431
0.00500468
0.00501338
0.00501549
0.00501407
0.00501101
0.00500729
0.00500327
0.00499875
0.00499306
0.00498499
0.0049726
0.00495296
0.00492179
0.00487302
0.00479841
0.00468723
0.00452635
0.0043007
0.00399455
0.00359364
0.00308794
0.00247433
0.001757
0.000942716
0.000124538
0.000140269
0.000611277
0.00124568
0.00197658
0.0027328
0.00343735
0.00403015
0.0044885
0.0048194
0.00504427
0.00518798
0.0052746
0.00532355
0.00534909
0.00536071
0.00536437
0.00536375
0.00536102
0.00535733
0.00535308
0.00534806
0.00534149
0.00533197
0.00531728
0.00529407
0.00525747
0.0052007
0.00511463
0.00498764
0.0048057
0.00455314
0.00421409
0.00377491
0.00322715
0.00257023
0.00181172
0.000962623
0.000125237
0.000154832
0.000567342
0.00120887
0.00198064
0.00279173
0.00355461
0.0042017
0.00470589
0.00507304
0.00532459
0.00548757
0.00558754
0.00564532
0.00567638
0.00569126
0.00569678
0.00569716
0.0056949
0.00569132
0.00568688
0.00568134
0.00567384
0.00566278
0.00564564
0.00561863
0.00557632
0.0055112
0.00541332
0.00527021
0.00506707
0.00478775
0.00441647
0.00394037
0.0033527
0.00265547
0.00185951
0.00097963
0.00012583
0.000172136
0.000573881
0.001219
0.00201379
0.0028653
0.00367489
0.00436771
0.00491205
0.00531173
0.00558805
0.0057693
0.00588219
0.00594874
0.00598546
0.00600383
0.00601141
0.00601295
0.00601128
0.00600788
0.00600328
0.00599722
0.00598875
0.00597607
0.00595634
0.00592536
0.00587713
0.00580342
0.00569354
0.00553419
0.00530995
0.00500436
0.00460182
0.00409046
0.00346528
0.00273088
0.00190114
0.000994175
0.000126345
0.000110245
0.000768092
0.00151999
0.00226845
0.00299838
0.00369453
0.00434244
0.004931
0.00545366
0.00590854
0.0062978
0.00662654
0.00690166
0.00713076
0.00732122
0.00747956
0.00761102
0.0077194
0.00780709
0.00787531
0.00792445
0.00795462
0.00796609
0.00795957
0.00793606
0.00789702
0.0078376
0.0077819
0.00776498
0.00748141
0.00708168
0.00662312
0.00620501
0.00587691
0.00562799
0.00543616
0.00527815
0.005128
0.00495571
0.00472663
0.00440195
0.00394197
0.00331542
0.00252182
0.00160575
0.0004381
0.000110777
0.000769162
0.00153384
0.00230373
0.00306246
0.00379356
0.004481
0.00511171
0.00567705
0.00617313
0.00660041
0.00696278
0.00726637
0.00751847
0.0077265
0.00789728
0.00803651
0.00814857
0.00823652
0.00830228
0.00834709
0.00837196
0.0083782
0.00836757
0.00834194
0.00830347
0.00824672
0.00820243
0.0081472
0.00793618
0.00766564
0.00724424
0.00682862
0.00650132
0.00625684
0.00606754
0.0059047
0.0057396
0.00554133
0.00527511
0.00490232
0.00438461
0.00369719
0.00285588
0.00193577
0.0009826
0.000111302
0.000769471
0.00154289
0.00232784
0.00310733
0.0038642
0.0045813
0.00524413
0.0058424
0.0063706
0.00682776
0.00721667
0.00754272
0.00781283
0.00803438
0.00821437
0.00835888
0.00847279
0.00855973
0.00862231
0.00866252
0.00868221
0.00868363
0.00866951
0.00864278
0.00860648
0.00855851
0.00853574
0.00843589
0.00834511
0.0081796
0.00779762
0.00740145
0.007084
0.00684557
0.00665858
0.00649207
0.00631613
0.00610015
0.00581081
0.00541203
0.00486974
0.00416595
0.00332477
0.00243885
0.00164377
0.000111845
0.000770464
0.00155082
0.00234673
0.00314112
0.00391656
0.00465522
0.00534157
0.00596411
0.00651608
0.00699539
0.00740392
0.00774644
0.00802953
0.00826049
0.00844645
0.00859379
0.00870782
0.00879269
0.00885163
0.0088873
0.00890234
0.00889985
0.00888353
0.00885758
0.00882544
0.00878944
0.00877993
0.00866599
0.00871034
0.00860892
0.00826881
0.00790659
0.00760967
0.00738164
0.00719851
0.00703073
0.00684942
0.00662587
0.00632996
0.00593053
0.00540029
0.00472892
0.0039451
0.00313915
0.00246793
0.000112408
0.000772416
0.00155905
0.00236343
0.00316867
0.00395733
0.00471122
0.00541411
0.00605367
0.00662226
0.00711695
0.00753893
0.00789251
0.00818402
0.00842067
0.00860972
0.0087578
0.00887056
0.00895263
0.00900778
0.00903928
0.00905048
0.00904524
0.00902815
0.00900464
0.00897792
0.0089533
0.00893718
0.00883782
0.0090199
0.00895458
0.00865718
0.00833598
0.00806682
0.00785386
0.00767743
0.00751175
0.00733093
0.00710962
0.00682233
0.00644419
0.00595586
0.00535462
0.00467165
0.0039885
0.00344107
0.000112982
0.000775273
0.00156801
0.00237938
0.00319273
0.00399077
0.00475511
0.00546914
0.00611996
0.00669934
0.0072038
0.00763408
0.00799418
0.00829024
0.00852947
0.00871923
0.00886636
0.00897684
0.0090557
0.00910715
0.00913504
0.0091433
0.00913644
0.00911979
0.00909974
0.00907928
0.00906346
0.00901562
0.00900023
0.00928453
0.00923295
0.00897296
0.00869182
0.00845227
0.00825698
0.00808987
0.00792967
0.00775462
0.00754365
0.00727648
0.00693482
0.00650679
0.0059956
0.00543173
0.00488216
0.00444507
0.000113559
0.000778882
0.00157774
0.0023952
0.00321485
0.00401955
0.00479088
0.00551198
0.00616966
0.00675531
0.00726513
0.00769961
0.00806257
0.00836011
0.00859945
0.00878807
0.00893301
0.00904053
0.00911598
0.00916402
0.00918892
0.00919511
0.0091876
0.00917224
0.00915595
0.00914186
0.00913187
0.00902073
0.0091924
0.00951399
0.00945849
0.00922681
0.00898061
0.00876893
0.00859175
0.00843555
0.00828349
0.00811829
0.00792339
0.00768357
0.00738643
0.00702594
0.00660878
0.00616181
0.00573561
0.00539488
0.000114132
0.000783089
0.00158815
0.00241115
0.00323589
0.0040454
0.00482124
0.00554648
0.00620775
0.00679628
0.00730813
0.0077437
0.00810677
0.00840345
0.00864105
0.00882718
0.00896907
0.00907322
0.00914528
0.00919025
0.00921277
0.00921764
0.00921024
0.00919666
0.00918401
0.0091755
0.00916859
0.009039
0.00940897
0.00970516
0.00963573
0.00942585
0.00920966
0.00902297
0.00886297
0.00871827
0.00857605
0.00842334
0.00824783
0.00803873
0.00778826
0.0074944
0.00716501
0.00682193
0.00650093
0.006242
0.000114697
0.000787753
0.00159908
0.0024273
0.00325636
0.00406942
0.00484807
0.00557538
0.00623792
0.00682689
0.00733837
0.00777275
0.00813392
0.00842807
0.00866263
0.00884536
0.00898367
0.00908428
0.00915309
0.00919537
0.00921605
0.00922022
0.00921341
0.00920188
0.00919244
0.00918786
0.00917971
0.0091125
0.0095941
0.00984421
0.00976476
0.00957602
0.00938673
0.00922212
0.0090777
0.00894428
0.00881266
0.00867374
0.00851886
0.00834081
0.00813511
0.00790204
0.00764912
0.00739288
0.00715718
0.006965
0.000115248
0.000792762
0.00161043
0.00244366
0.00327654
0.00409232
0.00487266
0.00560063
0.00626284
0.00685058
0.00736
0.00779165
0.00814954
0.00844002
0.00867069
0.00884947
0.00898394
0.00908101
0.00914678
0.00918674
0.00920605
0.00920994
0.00920403
0.00919451
0.00918765
0.00918538
0.00917109
0.00916161
0.00971791
0.00993056
0.00985157
0.00968528
0.0095203
0.00937477
0.00924394
0.00912096
0.00899991
0.00887493
0.00874034
0.00859159
0.00842632
0.00824586
0.00805648
0.00786983
0.00770077
0.00756092
0.000115783
0.000798021
0.00162205
0.00246018
0.00329657
0.00411457
0.00489585
0.00562357
0.00628441
0.00686981
0.00737608
0.00780398
0.00815771
0.00844383
0.00867013
0.00884468
0.00897524
0.00906888
0.00913187
0.00916987
0.00918816
0.00919207
0.00918718
0.0091795
0.00917462
0.00917302
0.00914551
0.00920963
0.00979911
0.00998133
0.00990868
0.00976356
0.00961917
0.00948929
0.00936975
0.00925597
0.00914482
0.00903308
0.00891735
0.00879487
0.00866454
0.00852783
0.00838939
0.00825676
0.00813818
0.00803782
0.000116301
0.000803457
0.00163386
0.00247681
0.00331654
0.00413643
0.00491822
0.00564512
0.00630396
0.00688633
0.00738879
0.00781232
0.0081614
0.00844279
0.00866448
0.00883472
0.00896145
0.00905185
0.00911234
0.00914867
0.00916624
0.00917034
0.00916649
0.00916043
0.00915702
0.00915421
0.00909216
0.00926994
0.00985955
0.0100163
0.00994925
0.00982027
0.00969144
0.00957341
0.00946265
0.00935658
0.00925427
0.00915451
0.00905553
0.00895572
0.00885453
0.00875308
0.00865434
0.00856251
0.00848111
0.00840951
0.000116799
0.000809015
0.00164577
0.00249348
0.00333644
0.00415805
0.0049401
0.00566587
0.00632234
0.00690131
0.0073996
0.00781847
0.00816265
0.00843917
0.00865622
0.00882223
0.00894526
0.00903265
0.00909091
0.00912585
0.00914289
0.00914731
0.00914443
0.00913976
0.00913741
0.00913142
0.00898102
0.00935801
0.00992098
0.0100506
0.00998242
0.00986236
0.00974356
0.00963367
0.00952934
0.00942943
0.00933469
0.00924537
0.00916074
0.00907984
0.00900225
0.00892847
0.00885991
0.00879818
0.00874347
0.00869212
0.000117277
0.000814651
0.0016577
0.00251014
0.00335627
0.00417952
0.0049617
0.00568618
0.00634011
0.00691553
0.0074095
0.00782361
0.00816285
0.00843452
0.008647
0.00880893
0.00892849
0.00901311
0.00906937
0.00910314
0.00911982
0.00912458
0.00912259
0.00911907
0.00911755
0.00910793
0.00884068
0.00948985
0.00999591
0.010089
0.0100111
0.00989331
0.00978006
0.00967532
0.00957546
0.00948033
0.00939189
0.00931135
0.00923865
0.00917311
0.00911414
0.00906157
0.00901546
0.00897543
0.00893942
0.00890186
0.000117735
0.000820333
0.00166962
0.00252673
0.00337599
0.00420084
0.00498311
0.00570626
0.00635762
0.00692945
0.00741911
0.00782848
0.00816287
0.0084298
0.00863789
0.00879593
0.00891223
0.00899431
0.00904881
0.00908159
0.009098
0.00910312
0.00910192
0.00909931
0.00909829
0.00908734
0.00885816
0.00964901
0.0100724
0.0101237
0.0100323
0.00991389
0.00980385
0.00970248
0.00960572
0.00951427
0.00943095
0.00935762
0.00929457
0.00924118
0.00919659
0.00915994
0.00913017
0.00910545
0.00908219
0.00905373
0.000118172
0.000826035
0.00168147
0.0025432
0.00339557
0.00422201
0.00500437
0.00572622
0.00637504
0.00694334
0.00742879
0.00783354
0.00816321
0.00842559
0.00862949
0.00878386
0.00889713
0.00897689
0.00902981
0.00906174
0.00907798
0.00908344
0.0090829
0.009081
0.00907987
0.00906772
0.00899861
0.00977434
0.0101241
0.0101426
0.0100418
0.00992414
0.00981719
0.00971846
0.00962402
0.00953542
0.0094562
0.00938866
0.00933324
0.00928928
0.00925556
0.0092306
0.00921248
0.00919833
0.00918353
0.00916084
0.000118588
0.000831737
0.00169323
0.00255952
0.00341498
0.00424302
0.00502551
0.0057461
0.00639247
0.00695736
0.00743872
0.00783903
0.00816418
0.00842221
0.00862214
0.00877307
0.00888352
0.00896116
0.00901265
0.00904385
0.00905995
0.00906573
0.00906575
0.0090643
0.00906279
0.00904597
0.00906034
0.00983517
0.0101411
0.0101418
0.0100391
0.00992536
0.00982238
0.00972619
0.00963362
0.00954726
0.00947129
0.0094083
0.00935881
0.00932199
0.00929632
0.00927979
0.0092698
0.00926274
0.00925336
0.00923417
0.000118984
0.000837423
0.00170486
0.00257566
0.00343418
0.00426382
0.00504649
0.00576591
0.00640993
0.00697155
0.00744899
0.00784505
0.00816589
0.00841979
0.00861598
0.00876368
0.00887152
0.0089472
0.00899741
0.00902795
0.00904394
0.00905
0.00905047
0.0090493
0.0090473
0.00902433
0.00909977
0.00986328
0.0101361
0.0101271
0.0100276
0.00992027
0.00982198
0.00972828
0.00963726
0.00955263
0.00947918
0.0094197
0.00937471
0.00934322
0.00932339
0.00931281
0.00930834
0.00930588
0.00929981
0.00928257
0.000119359
0.000843083
0.00171635
0.00259159
0.00345315
0.00428442
0.0050673
0.00578564
0.00642744
0.00698593
0.00745964
0.00785165
0.00816839
0.00841838
0.00861104
0.00875571
0.00886112
0.00893499
0.00898402
0.00901397
0.00902986
0.00903618
0.00903701
0.00903599
0.0090333
0.0090016
0.00913646
0.00987966
0.0101219
0.0101061
0.0100121
0.00991207
0.00981849
0.00972699
0.00963715
0.0095538
0.00948224
0.00942541
0.00938377
0.00935618
0.00934051
0.009334
0.00933316
0.00933353
0.0093293
0.009313
0.000119714
0.000848712
0.0017277
0.00260731
0.00347188
0.00430478
0.00508795
0.00580529
0.00644499
0.00700051
0.00747066
0.0078588
0.00817165
0.00841795
0.00860727
0.0087491
0.00885223
0.00892443
0.00897238
0.0090018
0.0090176
0.00902412
0.00902524
0.00902425
0.00902062
0.00897582
0.00917198
0.00988942
0.0101041
0.0100839
0.00999636
0.00990351
0.00981405
0.00972419
0.00963507
0.00955255
0.00948233
0.00942744
0.00938825
0.00936344
0.00935064
0.00934683
0.00934823
0.00935019
0.0093468
0.00933077
0.00012005
0.00085431
0.0017389
0.00262281
0.00349038
0.00432493
0.00510843
0.00582486
0.00646257
0.00701527
0.00748203
0.0078665
0.00817564
0.00841843
0.0086046
0.00874376
0.00884476
0.00891539
0.00896234
0.00899125
0.00900696
0.00901366
0.009015
0.00901392
0.00900904
0.00894343
0.00920042
0.00989289
0.0100856
0.010064
0.00998335
0.00989672
0.00981031
0.00972132
0.0096324
0.00955026
0.0094809
0.00942736
0.00938991
0.00936702
0.00935613
0.00935398
0.00935663
0.00935927
0.00935604
0.00933985
0.000120367
0.000859887
0.00174998
0.00263814
0.00350867
0.0043449
0.00512878
0.00584438
0.00648022
0.00703023
0.00749375
0.0078747
0.00818031
0.00841975
0.00860294
0.00873957
0.00883856
0.00890772
0.00895372
0.00898216
0.00899779
0.00900463
0.00900612
0.00900481
0.0089982
0.00889784
0.00922641
0.00989366
0.0100704
0.0100499
0.00997541
0.00989322
0.00980843
0.00971942
0.00963012
0.00954793
0.00947904
0.0094264
0.00939013
0.0093685
0.00935876
0.0093575
0.00936064
0.00936332
0.00935976
0.0093431
0.000120667
0.000865462
0.00176097
0.00265333
0.00352684
0.00436477
0.00514908
0.00586394
0.006498
0.00704543
0.00750583
0.0078834
0.00818562
0.00842186
0.00860218
0.00873641
0.00883349
0.00890126
0.00894636
0.00897435
0.00898988
0.00899683
0.00899843
0.00899675
0.00898752
0.00882264
0.00926038
0.00990106
0.0100654
0.0100454
0.0099742
0.00989387
0.00980907
0.00971914
0.00962895
0.00954637
0.00947761
0.00942552
0.00938997
0.00936907
0.0093599
0.00935891
0.00936196
0.00936419
0.00935992
0.00934257
0.000120957
0.000871065
0.00177194
0.00266851
0.00354501
0.0043847
0.0051695
0.00588368
0.00651603
0.00706095
0.00751832
0.00789261
0.00819153
0.00842467
0.00860224
0.00873415
0.00882941
0.00889586
0.0089401
0.00896765
0.00898306
0.0089901
0.00899179
0.00898963
0.0089762
0.00868626
0.00932334
0.00992986
0.0100779
0.0100529
0.00998016
0.00989869
0.00981235
0.00972078
0.00962935
0.00954614
0.00947731
0.00942547
0.00939029
0.00936966
0.00936055
0.00935932
0.0093618
0.00936317
0.0093579
0.00933969
0.000121245
0.000876748
0.00178303
0.00268387
0.00356346
0.00440496
0.00519032
0.00590384
0.0065345
0.00707694
0.00753132
0.00790236
0.00819804
0.00842814
0.00860303
0.00873269
0.00882618
0.00889135
0.00893476
0.00896187
0.00897715
0.00898426
0.00898603
0.00898347
0.00896465
0.00850503
0.00944053
0.00999147
0.0101103
0.0100711
0.00999157
0.00990655
0.00981779
0.00972433
0.0096316
0.00954774
0.00947873
0.00942692
0.00939175
0.00937098
0.00936147
0.00935953
0.00936101
0.00936117
0.00935463
0.0093354
0.000121551
0.000882634
0.0017945
0.0026998
0.00358262
0.00442604
0.00521197
0.00592481
0.00655374
0.00709364
0.00754496
0.00791272
0.00820515
0.00843222
0.00860444
0.00873188
0.00882364
0.00888756
0.00893018
0.00895687
0.008972
0.00897913
0.00898099
0.00897836
0.00895693
0.00850182
0.00961303
0.0100774
0.0101532
0.0100931
0.0100043
0.00991531
0.0098245
0.00972961
0.00963596
0.00955163
0.00948241
0.00943042
0.00939492
0.00937357
0.00936319
0.00936009
0.00936016
0.00935876
0.00935071
0.00933032
0.000121913
0.000889021
0.00180687
0.00271699
0.00360327
0.00444869
0.00523515
0.00594719
0.00657419
0.00711135
0.00755945
0.0079238
0.00821288
0.00843686
0.00860638
0.0087316
0.00882164
0.00888434
0.00892618
0.00895246
0.00896745
0.00897456
0.00897645
0.0089739
0.00895384
0.00876387
0.00978592
0.0101545
0.0101871
0.0101081
0.0100128
0.00992254
0.00983156
0.00973652
0.00964271
0.00955827
0.00948887
0.00943647
0.00940025
0.00937784
0.00936609
0.00936136
0.0093596
0.00935632
0.00934652
0.00932482
0.000122398
0.000896538
0.0018211
0.00273659
0.00362663
0.00447408
0.00526089
0.00597177
0.00659645
0.00713049
0.00757502
0.0079357
0.00822124
0.00844201
0.00860876
0.00873171
0.00882002
0.0088815
0.00892258
0.00894848
0.00896334
0.00897044
0.00897226
0.00896944
0.00894872
0.00898449
0.00988401
0.0101868
0.0101931
0.0101069
0.0100131
0.00992638
0.00983829
0.009745
0.00965217
0.00956814
0.00949859
0.00944549
0.00940807
0.00938407
0.0093704
0.00936354
0.00935953
0.00935403
0.00934225
0.00931911
0.00012312
0.00090627
0.00183874
0.00276045
0.00365458
0.0045039
0.00529055
0.0059996
0.00662125
0.00715151
0.00759195
0.00794854
0.00823025
0.00844762
0.00861147
0.00873208
0.00881862
0.00887887
0.00891922
0.00894478
0.00895956
0.00896666
0.00896838
0.00896486
0.00893825
0.0090368
0.009893
0.0101652
0.0101655
0.0100863
0.0100036