/*--------------------------------*- C++ -*----------------------------------*\
  =========                 |
  \\      /  F ield         | OpenFOAM: The Open Source CFD Toolbox
   \\    /   O peration     | Website:  https://openfoam.org
    \\  /    A nd           | Version:  7
     \\/     M anipulation  |
\*---------------------------------------------------------------------------*/
FoamFile
{
    version     2.0;
    format      ascii;
    class       volScalarField;
    location    "0.1";
    object      p;
}
// * * * * * * * * * * * * * * * * * * * * * * * * * * * * * * * * * * * * * //

dimensions      [1 -1 -2 0 0 0 0];

internalField   nonuniform List<scalar> 
9072
(
1595.7
1598.85
1599.99
1598.47
1593.63
1585.35
1573.75
1558.91
1540.93
1519.82
1495.6
1468.24
1437.67
1403.78
1366.42
1325.35
1280.25
1230.68
1176.03
1115.51
1048.02
972.18
886.425
789.336
680.607
562.61
442.643
335.306
246.59
178.272
124.342
81.7128
52.3913
30.1859
10.1031
3.84001
2.83278
2.58755
2.48071
2.42561
2.3951
2.37585
2.36626
2.36417
2.36726
2.37598
1565.56
1567.86
1567.98
1565.7
1560.43
1551.93
1540.2
1525.28
1507.22
1486.03
1461.71
1434.21
1403.48
1369.38
1331.76
1290.37
1244.86
1194.8
1139.54
1078.25
1009.83
932.892
845.938
747.728
638.248
520.398
401.734
293.117
208.265
145.336
96.0359
54.5374
21.6048
6.77579
2.812
2.41263
2.43551
2.45581
2.44568
2.41029
2.37425
2.35306
2.34268
2.33957
2.34068
2.34665
1535.5
1537.36
1536.44
1533.17
1527.22
1518.27
1506.24
1491.11
1472.86
1451.49
1426.98
1399.26
1368.26
1333.85
1295.84
1253.98
1207.9
1157.13
1101.02
1038.7
969.077
890.821
802.579
703.395
593.672
476.921
360.98
256.442
174.099
112.589
64.1919
27.1527
7.92029
3.17859
2.49709
2.42019
2.36863
2.38825
2.39239
2.3661
2.33685
2.31804
2.30823
2.30501
2.30638
2.31324
1505.4
1507.3
1505.81
1501.75
1495.14
1485.69
1473.27
1457.84
1439.34
1417.73
1392.97
1364.99
1333.69
1298.94
1260.53
1218.18
1171.53
1120.08
1063.17
999.942
929.32
850.064
760.987
661.365
551.88
436.403
322.465
219.491
137.125
75.7033
31.8395
8.92771
3.29158
2.61197
2.39452
2.32074
2.30788
2.32836
2.33385
2.31453
2.29137
2.27486
2.26563
2.26269
2.26562
2.27541
1475.28
1477.35
1475.64
1471.1
1463.99
1454.11
1441.34
1425.6
1406.84
1384.98
1359.97
1331.74
1300.16
1265.08
1226.3
1183.53
1136.39
1084.37
1026.83
962.934
891.651
811.833
722.44
622.89
513.957
399.581
286.388
181.919
97.2154
38.8673
9.7045
3.02035
2.51665
2.44011
2.32336
2.26937
2.26194
2.27557
2.27739
2.26144
2.24187
2.2268
2.21796
2.21535
2.22007
2.23283
1445.2
1447.4
1445.66
1440.87
1433.43
1423.22
1410.16
1394.17
1375.16
1353.08
1327.84
1299.36
1267.52
1232.15
1193.05
1149.9
1102.35
1049.89
991.878
927.519
855.857
775.83
686.529
587.458
479.368
366.08
252.487
143.638
57.673
12.896
2.76292
2.45144
2.42128
2.3354
2.27015
2.23273
2.22262
2.22606
2.22237
2.20708
2.18924
2.17492
2.1662
2.16381
2.17004
2.18521
1415.22
1417.5
1415.83
1410.94
1403.31
1392.89
1379.61
1363.41
1344.2
1321.92
1296.47
1267.78
1235.7
1200.07
1160.68
1117.22
1069.33
1016.52
958.174
893.536
821.723
741.772
652.898
554.673
447.79
335.867
220.889
106.393
26.9602
3.59754
2.48387
2.47383
2.33982
2.27161
2.2302
2.19856
2.18288
2.17708
2.16775
2.15153
2.13411
2.11982
2.11083
2.10834
2.1156
2.13253
1385.4
1387.7
1386.18
1381.32
1373.62
1363.08
1349.67
1333.31
1313.94
1291.49
1265.86
1236.98
1204.69
1168.84
1129.2
1085.48
1037.32
984.256
925.697
860.936
789.17
709.54
621.396
524.378
419.176
309.179
192.291
74.7219
11.4958
2.91851
2.61344
2.40521
2.28088
2.23098
2.1949
2.1623
2.14092
2.1274
2.11294
2.09495
2.07694
2.06204
2.05231
2.04921
2.05688
2.07482
1355.8
1358.09
1356.76
1352.02
1344.35
1333.79
1320.31
1303.86
1284.37
1261.79
1236.02
1206.97
1174.52
1138.47
1098.62
1054.7
1006.34
953.106
894.443
829.701
758.16
679.069
591.929
496.479
393.527
286.261
167.952
52.894
7.23999
3.0639
2.52826
2.34062
2.24438
2.19864
2.15925
2.12322
2.09645
2.07653
2.0575
2.03727
2.01801
2.00194
1.99094
1.98661
1.99394
2.01199
1326.46
1328.74
1327.63
1323.08
1315.53
1305.02
1291.54
1275.05
1255.5
1232.82
1206.95
1177.77
1145.17
1108.97
1068.96
1024.89
976.398
923.076
864.411
799.815
728.657
650.299
564.404
470.854
370.741
267.21
149.073
40.5402
7.03353
2.92753
2.44018
2.30103
2.21698
2.16615
2.12108
2.08107
2.04941
2.02415
2.00108
1.97841
1.95745
1.93973
1.9269
1.92057
1.92672
1.94366
1297.42
1299.71
1298.84
1294.55
1287.18
1276.79
1263.38
1246.9
1227.33
1204.6
1178.64
1149.38
1116.66
1080.35
1040.22
996.05
947.498
894.167
835.594
771.26
700.623
623.167
538.715
447.324
350.446
251.47
135.855
34.8639
7.0657
2.73587
2.37906
2.27166
2.18804
2.12985
2.07943
2.03557
1.99969
1.97
1.94338
1.91824
1.89529
1.8755
1.86029
1.85103
1.85499
1.869
1268.74
1271.07
1270.46
1266.45
1259.32
1249.11
1235.82
1219.41
1199.85
1177.11
1151.12
1121.79
1089
1052.61
1012.41
968.199
919.646
866.38
807.988
744.019
674.024
597.607
514.742
425.667
332.143
237.869
127.016
32.351
6.5949
2.60139
2.32992
2.23801
2.15211
2.08822
2.03356
1.9865
1.94719
1.91388
1.88419
1.85666
1.83155
1.80933
1.79115
1.77782
1.7784
1.78644
1240.43
1242.88
1242.54
1238.85
1232
1222.02
1208.89
1192.59
1173.1
1150.38
1124.38
1095.02
1062.2
1025.77
985.561
941.357
892.865
839.737
781.609
718.101
648.849
573.578
492.392
405.691
315.47
225.446
119.572
29.9298
6.0397
2.51017
2.27824
2.19385
2.10767
2.04046
1.98307
1.93367
1.89178
1.85563
1.82332
1.79356
1.76621
1.74127
1.71953
1.70072
1.69643
1.6931
1212.52
1215.2
1215.14
1211.8
1205.28
1195.57
1182.66
1166.52
1147.14
1124.48
1098.52
1069.18
1036.35
999.934
959.76
915.626
867.257
814.34
756.56
693.6
625.177
551.128
471.668
387.338
300.315
213.751
111.057
26.6589
5.4815
2.42116
2.21673
2.13979
2.055
1.98647
1.92771
1.87691
1.83324
1.79493
1.76046
1.72867
1.69909
1.67124
1.64535
1.61941
1.60854
1.584
1185.01
1188.02
1188.27
1185.31
1179.15
1169.78
1157.14
1141.21
1121.97
1099.43
1073.53
1044.24
1011.46
975.097
935.008
890.997
842.814
790.18
732.824
670.486
602.96
530.18
452.45
370.423
286.382
202.119
100.615
22.6309
4.79536
2.31226
2.14563
2.07744
1.99517
1.92663
1.86761
1.81623
1.77148
1.73163
1.69544
1.66185
1.63009
1.59917
1.56846
1.53361
1.51354
1.44907
1157.92
1161.2
1161.76
1159.12
1153.28
1144.2
1131.81
1116.08
1097
1074.57
1048.76
1019.53
986.822
950.544
910.571
866.722
818.771
766.473
709.596
647.928
581.325
509.802
433.718
353.822
272.198
188.091
86.8201
17.7927
3.94222
2.18137
2.05832
2.00453
1.92889
1.86244
1.80465
1.75365
1.7085
1.6677
1.63017
1.59494
1.56092
1.52655
1.48987
1.44433
1.40607
1.27734
0.980094
0.983531
0.984748
0.983373
0.979102
0.972255
0.963451
0.953223
0.942109
0.930456
0.918523
0.906518
0.894537
0.882726
0.871224
0.860076
0.84931
0.838939
0.828983
0.819455
0.810356
0.801723
0.793564
0.785917
0.778818
0.772289
0.766362
0.761054
0.756369
0.752338
0.748946
0.746221
0.744152
0.742742
0.741979
0.741817
0.742113
0.742762
0.950269
0.953112
0.953741
0.952081
0.947869
0.941229
0.932744
0.922929
0.912156
0.900763
0.88902
0.877149
0.865379
0.85377
0.842329
0.831191
0.820449
0.810108
0.800177
0.790669
0.781583
0.772958
0.764805
0.75716
0.750062
0.743534
0.737606
0.732298
0.727612
0.723582
0.720186
0.717452
0.715364
0.713917
0.713082
0.7128
0.71292
0.713396
0.920287
0.923103
0.923389
0.921451
0.91722
0.910717
0.902462
0.892898
0.882357
0.871165
0.859588
0.847847
0.836181
0.824644
0.813262
0.802168
0.791458
0.781143
0.771227
0.761732
0.752652
0.744032
0.735883
0.728239
0.721142
0.714613
0.708684
0.703377
0.698688
0.694654
0.691251
0.688502
0.686389
0.684898
0.683987
0.683594
0.683601
0.684018
0.890139
0.893367
0.893657
0.891564
0.887266
0.880788
0.872627
0.86317
0.85275
0.841678
0.830211
0.818562
0.80694
0.795427
0.784082
0.77302
0.762327
0.752022
0.74211
0.732617
0.72354
0.714922
0.706777
0.699135
0.692038
0.685509
0.679577
0.674267
0.669573
0.665529
0.662114
0.659344
0.657199
0.655662
0.654684
0.65421
0.654177
0.654617
0.859817
0.863737
0.864308
0.862221
0.85786
0.851329
0.843153
0.833705
0.823319
0.812296
0.800883
0.789285
0.777681
0.766171
0.754837
0.74378
0.733082
0.722771
0.712852
0.703354
0.694278
0.685662
0.677523
0.669885
0.662789
0.65626
0.650325
0.64501
0.640308
0.636252
0.63282
0.630024
0.627847
0.626267
0.625237
0.624712
0.624686
0.625176
0.829286
0.83418
0.83525
0.833332
0.828929
0.822293
0.814015
0.80449
0.794058
0.783019
0.771609
0.760019
0.748409
0.736882
0.725533
0.714455
0.703731
0.693398
0.683461
0.673953
0.664877
0.656265
0.648133
0.640502
0.633409
0.626883
0.620945
0.615624
0.610913
0.606841
0.60339
0.60057
0.598362
0.596748
0.595682
0.595131
0.595135
0.595677
0.798468
0.804719
0.806505
0.804907
0.800476
0.79368
0.785217
0.775528
0.764972
0.753851
0.74239
0.730766
0.719121
0.707553
0.696163
0.685041
0.674272
0.663901
0.653938
0.644415
0.635337
0.62673
0.618608
0.610987
0.603901
0.597378
0.591439
0.586113
0.581391
0.577302
0.573832
0.570989
0.568756
0.567118
0.566031
0.565474
0.565519
0.566109
0.767242
0.775395
0.778156
0.777
0.772535
0.765508
0.756768
0.746825
0.736064
0.724794
0.713227
0.701525
0.689813
0.678179
0.666721
0.655533
0.644701
0.634279
0.62428
0.614739
0.605658
0.597057
0.588947
0.581339
0.574264
0.567748
0.561809
0.556477
0.551744
0.547638
0.544151
0.541288
0.539037
0.537385
0.536292
0.535743
0.535834
0.536463
0.735417
0.746274
0.750353
0.749708
0.74516
0.737802
0.728678
0.718383
0.707335
0.695845
0.684115
0.67229
0.660476
0.648747
0.637198
0.625925
0.615014
0.60453
0.59449
0.584925
0.57584
0.567246
0.55915
0.55156
0.544498
0.537992
0.532055
0.526717
0.521974
0.517853
0.514349
0.511471
0.509209
0.507553
0.506466
0.505938
0.506077
0.506735
0.70271
0.717491
0.723353
0.723167
0.718419
0.710591
0.700957
0.690206
0.678782
0.667001
0.655049
0.64305
0.631098
0.619248
0.607586
0.596209
0.585209
0.574654
0.564565
0.554973
0.545882
0.537295
0.529217
0.521647
0.514603
0.508109
0.502175
0.496833
0.492081
0.487945
0.484429
0.481541
0.479275
0.477624
0.476555
0.47606
0.476245
0.476923
0.668957
0.689279
0.697552
0.697565
0.692399
0.683911
0.673615
0.662292
0.650401
0.638252
0.626015
0.613795
0.601667
0.589668
0.577874
0.566381
0.555281
0.544648
0.534506
0.524884
0.515785
0.507207
0.499147
0.491601
0.484577
0.478097
0.472169
0.466824
0.462064
0.457917
0.45439
0.451498
0.449236
0.4476
0.446559
0.446105
0.446334
0.447024
0.634591
0.662065
0.673532
0.673121
0.66718
0.657788
0.646654
0.634633
0.622181
0.609586
0.597001
0.584511
0.572169
0.559996
0.548054
0.536434
0.525228
0.514512
0.504312
0.494658
0.48555
0.476981
0.468941
0.461419
0.454419
0.447955
0.442035
0.436688
0.431921
0.427766
0.424234
0.421343
0.419091
0.417478
0.416476
0.41607
0.416342
0.417038
0.600112
0.637417
0.652192
0.650073
0.64282
0.632237
0.620066
0.607215
0.594103
0.580984
0.567987
0.555178
0.542588
0.530217
0.518113
0.506359
0.495043
0.484239
0.473981
0.464292
0.455174
0.446613
0.438594
0.431099
0.424123
0.417677
0.411766
0.406419
0.401649
0.397488
0.393955
0.39107
0.388836
0.387255
0.3863
0.385951
0.386268
0.386966
0.56323
0.617722
0.634714
0.628643
0.619321
0.607255
0.593845
0.580022
0.566146
0.552421
0.53895
0.525774
0.512898
0.500307
0.488028
0.476134
0.464705
0.453814
0.443496
0.433771
0.424641
0.416087
0.408086
0.400617
0.393666
0.387239
0.381339
0.375994
0.371224
0.367061
0.363532
0.360659
0.358453
0.356915
0.35602
0.355739
0.356107
0.356807
0.517422
0.601974
0.621323
0.608915
0.59659
0.582787
0.567961
0.553029
0.538289
0.523883
0.509876
0.496287
0.483093
0.470261
0.457797
0.445759
0.434217
0.423239
0.41286
0.403099
0.393954
0.385403
0.377419
0.369973
0.363046
0.356636
0.350749
0.345409
0.340641
0.336482
0.332961
0.330108
0.327938
0.326455
0.325631
0.325429
0.325857
0.326559
0.474369
0.585787
0.608616
0.590454
0.574365
0.558582
0.542252
0.526133
0.510476
0.495355
0.480794
0.466777
0.453255
0.440177
0.427531
0.415355
0.403708
0.39265
0.382215
0.37242
0.363259
0.354709
0.346737
0.339309
0.332401
0.326006
0.320128
0.314792
0.310025
0.305866
0.30235
0.299511
0.297369
0.29593
0.295165
0.295034
0.295514
0.296217
1116.18
1119.58
1120.45
1118.07
1112.45
1103.58
1091.39
1075.83
1056.89
1034.57
1008.86
979.724
947.13
911.005
871.243
827.689
780.158
728.453
672.39
611.815
546.653
476.989
403.224
326.204
246.738
159.612
61.9245
11.1708
2.81736
1.95583
1.89144
1.86967
1.81587
1.7595
1.70737
1.65915
1.61466
1.57328
1.53425
1.49663
1.45892
1.41861
1.3713
1.30713
1.20626
0.904694
1060.73
1064.19
1065.14
1062.81
1057.25
1048.46
1036.38
1020.97
1002.19
980.051
954.543
925.656
893.361
857.612
818.324
775.38
728.635
677.944
623.17
564.21
501.028
433.726
362.675
288.526
210.729
122.069
35.2259
5.32427
1.97868
1.6658
1.6777
1.68184
1.6526
1.61394
1.57311
1.53156
1.49053
1.4505
1.4113
1.37222
1.33175
1.2873
1.23417
1.16319
1.06342
0.933238
1006.68
1010.09
1011.06
1008.81
1003.36
994.738
982.878
967.728
949.264
927.48
902.374
873.943
842.175
807.038
768.473
726.39
680.683
631.243
577.971
520.796
459.7
394.786
326.385
254.884
178.575
90.7649
19.5107
3.04316
1.59706
1.46783
1.49998
1.50883
1.4918
1.46543
1.4338
1.39879
1.36215
1.32487
1.28722
1.24882
1.20865
1.16508
1.11577
1.05756
0.989952
0.926786
954.018
957.293
958.247
956.077
950.793
942.41
930.862
916.091
898.072
876.794
852.258
824.467
793.42
759.099
721.464
680.45
635.98
587.978
536.371
481.111
422.193
359.724
294.011
225.154
150.233
65.448
11.2072
2.20598
1.39833
1.31631
1.34363
1.34875
1.33693
1.31775
1.29274
1.26334
1.23121
1.1974
1.16241
1.12614
1.08808
1.04736
1.00287
0.953203
0.896949
0.834785
902.774
905.866
906.772
904.675
899.566
891.453
880.266
865.946
848.459
827.794
803.951
776.936
746.757
713.406
676.858
637.07
593.99
547.564
497.743
444.496
387.833
327.88
264.94
198.822
125.465
45.7086
6.75761
1.75881
1.23108
1.17754
1.19561
1.196
1.18675
1.17221
1.15222
1.12769
1.09992
1.06989
1.03814
1.00483
0.969756
0.932465
0.892265
0.848097
0.798686
0.743427
852.985
855.875
856.72
854.689
849.76
841.936
831.144
817.321
800.429
780.452
757.39
731.253
702.051
669.785
634.443
595.999
554.421
509.674
461.727
410.567
356.221
298.846
238.757
175.442
103.883
30.9274
4.11872
1.37004
1.05118
1.03712
1.04958
1.04736
1.04017
1.0291
1.01307
0.992696
0.968957
0.942671
0.914407
0.88444
0.852778
0.819234
0.783392
0.744562
0.702125
0.655538
804.688
807.373
808.155
806.191
801.449
793.929
783.556
770.263
754.008
734.774
712.557
687.369
659.223
628.127
594.078
557.065
517.072
474.079
428.071
379.049
327.061
272.297
215.081
154.508
84.9079
20.3152
2.48305
1.01559
0.877042
0.89603
0.905057
0.902081
0.89692
0.888476
0.875583
0.858687
0.838527
0.81577
0.790951
0.764396
0.736219
0.706375
0.674618
0.64048
0.603671
0.563576
757.912
760.397
761.121
759.231
754.684
747.48
737.543
724.803
709.215
690.758
669.431
645.242
618.208
588.342
555.65
520.132
481.784
440.6
396.576
349.726
300.116
247.968
193.557
135.479
68.055
13.1963
1.59361
0.778226
0.729845
0.759059
0.764112
0.760808
0.756988
0.750356
0.739878
0.725858
0.708817
0.689282
0.667716
0.644428
0.619562
0.593135
0.564982
0.534777
0.502448
0.467471
712.677
714.973
715.648
713.837
709.494
702.617
693.128
680.955
666.052
648.397
627.987
604.83
578.946
550.352
519.062
485.086
448.427
409.09
367.081
322.423
275.203
225.663
173.971
118.069
53.2804
8.73445
1.18084
0.640176
0.607369
0.627825
0.62744
0.623364
0.620002
0.614535
0.60593
0.594301
0.579977
0.56334
0.544758
0.524485
0.502654
0.479302
0.454316
0.427478
0.398879
0.368096
668.993
671.111
671.745
670.021
665.889
659.345
650.311
638.714
624.506
607.666
588.19
566.087
541.378
514.085
484.229
451.825
416.884
379.418
339.439
296.983
252.157
205.221
156.212
102.394
40.843
5.89971
0.93417
0.520125
0.488471
0.497985
0.493157
0.488397
0.485202
0.480628
0.473587
0.46402
0.452088
0.438046
0.422159
0.404616
0.385523
0.364924
0.342747
0.318852
0.293433
0.266134
626.854
628.807
629.409
627.777
623.86
617.652
609.076
598.057
584.549
568.53
549.998
528.96
505.442
479.469
451.065
420.251
387.042
351.454
313.507
273.247
230.804
186.454
140.083
88.3468
30.6478
3.90724
0.718665
0.384898
0.362226
0.365868
0.359188
0.354556
0.351871
0.348243
0.342662
0.334953
0.325163
0.31345
0.299985
0.284897
0.268269
0.250151
0.230502
0.209236
0.186599
0.162286
586.248
588.045
588.621
587.083
583.382
577.511
569.391
558.951
546.143
530.949
513.363
493.399
471.081
446.437
419.494
390.274
358.796
325.08
289.153
251.07
210.984
169.185
125.394
75.7378
22.4337
2.43655
0.483217
0.239385
0.229456
0.230579
0.224401
0.221169
0.21957
0.217118
0.213004
0.207032
0.199194
0.189577
0.178291
0.165418
0.151029
0.135176
0.117845
0.0989822
0.0788599
0.0572076
547.148
548.799
549.351
547.908
544.423
538.886
531.222
521.359
509.251
494.881
478.245
459.357
438.242
414.931
389.447
361.814
332.055
300.195
266.267
230.334
192.57
153.273
111.985
64.4202
16.0867
1.34229
0.188924
0.0803725
0.0903695
0.0922102
0.0889542
0.0882555
0.0882632
0.0872005
0.0845752
0.0802477
0.074198
0.0664781
0.0571619
0.0463098
0.0339795
0.0202279
0.00505542
-0.0115663
-0.0293613
-0.0485741
509.522
511.035
511.566
510.218
506.948
501.745
494.533
485.245
473.836
460.289
444.603
426.79
406.877
384.892
360.859
334.799
306.739
276.712
244.756
210.944
175.463
138.605
99.7009
54.2083
11.3337
0.579842
-0.0952778
-0.0819497
-0.0511537
-0.0460126
-0.0454259
-0.0433933
-0.0417044
-0.0413594
-0.0425545
-0.0453511
-0.0497623
-0.0557514
-0.0632612
-0.0722428
-0.0826501
-0.0944305
-0.107575
-0.122098
-0.137726
-0.154678
473.331
474.713
475.226
473.973
470.917
466.045
459.285
450.568
439.856
427.13
412.39
395.646
376.926
356.256
333.659
309.154
282.771
254.551
224.539
192.814
159.571
125.066
88.3908
44.9794
7.81143
0.13952
-0.276101
-0.223375
-0.18634
-0.179495
-0.176587
-0.172844
-0.169915
-0.168381
-0.168302
-0.169707
-0.172616
-0.177005
-0.182828
-0.190049
-0.198636
-0.208553
-0.219793
-0.232354
-0.245969
-0.26083
438.529
439.788
440.285
439.128
436.285
431.741
425.427
417.279
407.259
395.35
381.548
365.865
348.324
328.953
307.775
284.806
260.079
233.639
205.539
175.863
144.8
112.542
77.9136
36.7173
5.34551
-0.0813901
-0.36705
-0.336348
-0.310965
-0.306888
-0.304016
-0.299894
-0.296315
-0.293883
-0.292705
-0.292849
-0.294362
-0.297243
-0.301464
-0.307004
-0.31385
-0.321991
-0.33143
-0.34215
-0.353891
-0.366813
405.067
406.208
406.69
405.628
402.996
398.777
392.905
385.321
375.987
364.886
352.015
337.38
321.003
302.913
283.133
261.683
238.594
213.912
187.691
160.018
131.077
100.991
68.3454
29.649
3.72381
-0.224463
-0.446968
-0.441899
-0.430809
-0.430802
-0.42905
-0.425186
-0.421272
-0.418108
-0.415933
-0.414891
-0.415072
-0.416501
-0.419178
-0.423099
-0.428271
-0.434705
-0.44242
-0.451393
-0.461367
-0.472479
372.887
373.915
374.382
373.414
370.99
367.094
361.661
354.636
345.981
335.68
323.727
310.127
294.899
278.071
259.67
239.721
218.251
195.303
170.928
145.212
118.334
90.3646
59.7259
23.7544
2.52043
-0.367919
-0.552493
-0.555336
-0.551624
-0.55408
-0.553215
-0.549521
-0.545246
-0.54134
-0.538166
-0.535945
-0.534809
-0.534815
-0.53599
-0.538348
-0.541907
-0.546696
-0.552747
-0.560039
-0.56833
-0.577728
341.927
342.845
343.298
342.423
340.208
336.633
331.637
325.166
317.183
307.668
296.62
284.041
269.947
254.364
237.324
218.852
198.977
177.735
155.171
131.37
106.508
80.6052
51.9608
18.7587
1.56806
-0.509087
-0.66805
-0.673922
-0.674194
-0.67795
-0.677332
-0.673448
-0.668597
-0.66381
-0.659547
-0.656092
-0.653608
-0.652191
-0.651893
-0.652735
-0.654737
-0.657941
-0.662387
-0.668056
-0.674728
-0.682489
312.123
312.935
313.374
312.595
310.588
307.333
302.771
296.849
289.528
280.789
270.629
259.057
246.084
231.733
216.033
199.013
180.7
161.128
140.338
118.414
95.5311
71.6555
44.9831
14.5632
0.813992
-0.646447
-0.786463
-0.795716
-0.799031
-0.80306
-0.801968
-0.797412
-0.79166
-0.785766
-0.780254
-0.775449
-0.771548
-0.768677
-0.766901
-0.766246
-0.76673
-0.768397
-0.771291
-0.775392
-0.780503
-0.786695
283.409
284.119
284.546
283.862
282.065
279.13
274.997
269.618
262.953
254.978
245.695
235.114
223.248
210.115
195.738
180.143
163.357
145.414
126.359
106.278
85.3369
63.4415
38.7095
11.0646
0.212228
-0.784781
-0.909067
-0.922046
-0.9271
-0.930137
-0.927678
-0.921849
-0.914779
-0.907486
-0.900512
-0.894203
-0.888778
-0.884384
-0.881095
-0.878926
-0.877897
-0.878049
-0.879424
-0.881997
-0.885594
-0.890271
255.717
256.325
256.742
256.155
254.569
251.953
248.248
243.406
237.389
230.174
221.756
212.151
201.374
189.441
176.367
162.171
146.883
130.539
113.186
94.9119
75.8673
55.8978
33.0797
8.18949
-0.272884
-0.937065
-1.04079
-1.0549
-1.05938
-1.05973
-1.05482
-1.047
-1.03814
-1.02912
-1.02045
-1.01247
-1.0054
-0.999399
-0.994538
-0.990819
-0.988258
-0.986895
-0.986763
-0.987833
-0.989952
-0.993166
228.972
229.478
229.889
229.403
228.03
225.734
222.455
218.146
212.771
206.307
198.746
190.102
180.392
169.632
157.835
145.018
131.207
116.439
100.762
84.259
67.0643
48.9791
28.0768
5.90123
-0.675891
-1.12515
-1.18705
-1.19548
-1.1961
-1.19181
-1.18328
-1.17275
-1.16161
-1.15056
-1.13999
-1.13019
-1.12137
-1.11369
-1.1072
-1.1019
-1.09779
-1.09491
-1.09328
-1.09287
-1.09355
-1.09535
203.095
203.5
203.91
203.534
202.381
200.409
197.554
193.774
189.032
183.307
176.592
168.895
160.232
150.62
140.072
128.608
116.252
103.039
89.0091
74.2384
58.8536
42.631
23.6681
4.14122
-1.02981
-1.36351
-1.35122
-1.34303
-1.33602
-1.32547
-1.31246
-1.29868
-1.28492
-1.2716
-1.25897
-1.24724
-1.2366
-1.22718
-1.21902
-1.2121
-1.20643
-1.20204
-1.19894
-1.19707
-1.19635
-1.1968
178.013
178.314
178.731
178.478
177.559
175.918
173.489
170.229
166.112
161.114
155.228
148.462
140.828
132.344
123.023
112.887
101.961
90.2694
77.8471
64.7676
51.1568
36.7708
19.7456
2.78269
-1.34161
-1.61672
-1.52478
-1.49259
-1.47582
-1.45883
-1.44135
-1.42424
-1.40776
-1.39205
-1.37726
-1.36353
-1.35101
-1.3398
-1.32992
-1.32137
-1.31414
-1.30825
-1.30369
-1.30042
-1.29836
-1.29751
153.623
153.816
154.269
154.169
153.507
152.212
150.216
147.473
143.965
139.677
134.601
128.745
122.121
114.744
106.631
97.801
88.2739
78.0688
67.2151
55.7901
43.9156
31.3174
16.1712
1.66682
-1.57577
-1.80393
-1.68382
-1.63492
-1.61095
-1.58962
-1.56879
-1.54883
-1.52977
-1.51169
-1.4947
-1.47893
-1.46449
-1.45146
-1.43985
-1.42965
-1.42087
-1.4135
-1.40753
-1.4029
-1.39954
-1.39747
129.773
129.845
130.395
130.513
130.16
129.237
127.682
125.459
122.552
118.953
114.662
109.69
104.052
97.7599
90.8314
83.2818
75.125
66.3751
57.0619
47.2631
37.0883
26.2315
12.904
0.719984
-1.7194
-1.89994
-1.80992
-1.76378
-1.73924
-1.71673
-1.69412
-1.672
-1.65064
-1.63028
-1.61111
-1.59328
-1.57691
-1.56206
-1.54873
-1.5369
-1.52659
-1.51778
-1.51043
-1.50447
-1.49989
-1.49665
106.439
106.297
106.941
107.331
107.364
106.875
105.79
104.094
101.785
98.8661
95.3452
91.2368
86.5586
81.325
75.5518
69.2517
62.4353
55.116
47.3233
39.1269
30.6239
21.5041
10.0162
-0.0319095
-1.8186
-1.954
-1.91252
-1.88316
-1.86296
-1.84123
-1.81776
-1.79386
-1.77037
-1.74777
-1.7264
-1.70648
-1.68817
-1.67149
-1.65645
-1.64303
-1.63123
-1.62102
-1.61234
-1.60512
-1.59935
-1.595
83.4471
83.1563
83.869
84.5084
84.9271
84.9072
84.3374
83.1964
81.4963
79.2564
76.4985
73.2439
69.5101
65.3116
60.6642
55.5818
50.0765
44.164
37.8694
31.2515
24.4088
17.0709
7.53523
-0.577766
-1.92234
-2.02679
-2.01723
-2.00267
-1.98659
-1.96539
-1.94081
-1.91496
-1.88915
-1.86419
-1.84055
-1.81851
-1.79823
-1.77972
-1.76298
-1.74799
-1.73474
-1.72317
-1.71321
-1.70478
-1.69789
-1.69249
59.5841
59.808
60.9063
62.026
62.8306
63.2311
63.1405
62.5446
61.4515
59.8877
57.8843
55.4684
52.6584
49.4691
45.9163
42.0173
37.7891
33.2498
28.4206
23.357
18.181
12.7117
5.31277
-0.998782
-2.04069
-2.13293
-2.1361
-2.12832
-2.11342
-2.09107
-2.06427
-2.03574
-2.00717
-1.97957
-1.95351
-1.92928
-1.907
-1.88667
-1.86826
-1.85174
-1.83707
-1.82418
-1.81298
-1.80339
-1.79544
-1.78904
35.0883
36.7073
37.7836
39.6587
40.9915
41.8128
42.1299
42.0005
41.4595
40.5308
39.2463
37.6337
35.7103
33.4906
30.9918
28.235
25.243
22.0359
18.6364
15.1076
11.6141
8.11653
3.1047
-1.40272
-2.16137
-2.25772
-2.26805
-2.26213
-2.24509
-2.2192
-2.18858
-2.15635
-2.12439
-2.0938
-2.06513
-2.03863
-2.01434
-1.99221
-1.97218
-1.95418
-1.93814
-1.92399
-1.91161
-1.90091
-1.89194
-1.88459
14.9248
19.5851
18.2447
19.2123
20.1906
20.9618
21.4645
21.6708
21.5947
21.2487
20.651
19.8228
18.7787
17.5312
16.0993
14.5088
12.7868
10.9576
9.04614
7.12121
5.37542
3.8893
1.21347
-1.88106
-2.28173
-2.39474
-2.41364
-2.40602
-2.38251
-2.35006
-2.31368
-2.27659
-2.24058
-2.20663
-2.17519
-2.14635
-2.12006
-2.09618
-2.07458
-2.05518
-2.03786
-2.02252
-2.00902
-1.99728
-1.98736
-1.97911
4.74363
12.7842
8.19435
6.61445
5.46442
4.83428
4.64912
4.64582
4.6904
4.73939
4.75496
4.71849
4.62002
4.45361
4.22682
3.95984
3.67529
3.38319
3.10061
2.87284
2.92402
3.43937
1.68219
-2.51691
-2.45265
-2.5537
-2.57757
-2.56165
-2.52584
-2.48309
-2.43888
-2.39579
-2.35516
-2.31761
-2.28332
-2.25217
-2.22393
-2.19838
-2.17532
-2.15461
-2.1361
-2.11965
-2.10513
-2.09244
-2.08163
-2.07253
-3.97453
-0.859478
0.506464
2.67821
2.53449
1.54345
0.342664
-0.655333
-1.24867
-1.41213
-1.24306
-0.841756
-0.282025
0.376653
1.09685
1.86507
2.66365
3.46341
4.24778
5.00214
5.89416
7.2418
5.43163
-3.026
-2.86899
-2.76582
-2.76186
-2.72747
-2.67299
-2.61627
-2.56254
-2.51273
-2.46724
-2.42609
-2.38904
-2.35571
-2.32567
-2.2986
-2.27423
-2.25234
-2.23275
-2.2153
-2.19985
-2.18629
-2.17468
-2.16481
-3.86851
-3.67563
-3.92647
-4.00222
-3.82009
-3.29804
-2.73941
-2.22009
-1.76346
-1.38511
-1.09577
-0.884817
-0.745743
-0.677536
-0.673678
-0.723687
-0.803435
-0.904333
-1.02071
-1.1443
-1.2022
-0.99886
-0.243601
-3.29267
-3.4357
-3.03079
-2.95935
-2.89389
-2.81704
-2.74539
-2.68196
-2.62567
-2.57567
-2.5313
-2.49183
-2.4566
-2.42502
-2.39664
-2.37113
-2.34822
-2.3277
-2.30938
-2.29312
-2.27879
-2.26645
-2.25588
-3.89385
-3.89493
-3.92768
-3.92651
-3.95085
-4.04541
-4.13216
-4.15519
-4.15371
-4.14561
-4.13495
-4.12308
-4.11053
-4.09726
-4.08295
-4.06771
-4.05231
-4.03888
-4.03002
-4.03162
-4.04005
-4.03083
-3.88808
-3.71675
-3.60469
-3.29349
-3.1516
-3.04443
-2.94797
-2.86494
-2.794
-2.7327
-2.6793
-2.63248
-2.59118
-2.55449
-2.52171
-2.49232
-2.4659
-2.44216
-2.42086
-2.40182
-2.38486
-2.36988
-2.35691
-2.34572
-3.92106
-3.91825
-3.93601
-3.94568
-3.95979
-3.98129
-4.00314
-4.01426
-4.01851
-4.01922
-4.01775
-4.0149
-4.01107
-4.00629
-4.00058
-3.99423
-3.988
-3.98285
-3.97951
-3.9784
-3.97764
-3.97219
-3.94249
-3.86655
-3.67197
-3.44074
-3.28518
-3.16213
-3.05843
-2.97071
-2.89629
-2.83249
-2.77728
-2.72912
-2.68674
-2.64915
-2.6156
-2.5855
-2.55843
-2.53406
-2.51217
-2.49256
-2.47506
-2.45953
-2.44603
-2.43431
-3.94823
-3.94348
-3.95411
-3.96599
-3.98283
-4.00254
-4.02088
-4.03361
-4.04041
-4.0426
-4.04151
-4.03818
-4.03312
-4.02643
-4.01828
-4.00905
-3.99933
-3.98956
-3.97981
-3.9686
-3.95243
-3.92761
-3.89193
-3.8267
-3.66997
-3.50131
-3.36457
-3.24843
-3.14828
-3.06225
-2.98839
-2.92468
-2.86937
-2.821
-2.77836
-2.74048
-2.70659
-2.67612
-2.64867
-2.62391
-2.60162
-2.58161
-2.5637
-2.54774
-2.53381
-2.52164
-3.97419
-3.97356
-3.97937
-3.9876
-4.00024
-4.01555
-4.03031
-4.04133
-4.04751
-4.04942
-4.04802
-4.04405
-4.03781
-4.02944
-4.01917
-4.0074
-3.99452
-3.98065
-3.96547
-3.94747
-3.92295
-3.88774
-3.83895
-3.76835
-3.65557
-3.5318
-3.41787
-3.31483
-3.22298
-3.14218
-3.07157
-3.0099
-2.95589
-2.90833
-2.86616
-2.82852
-2.79471
-2.76421
-2.73663
-2.7117
-2.6892
-2.66896
-2.65078
-2.63452
-2.62027
-2.60774
-3.99834
-4.00108
-4.0058
-4.01172
-4.01993
-4.02981
-4.03943
-4.04662
-4.05044
-4.05097
-4.04865
-4.04377
-4.03641
-4.02668
-4.01484
-4.00125
-3.98606
-3.9691
-3.94981
-3.92697
-3.89809
-3.85972
-3.80899
-3.7418
-3.65359
-3.556
-3.46038
-3.37031
-3.2878
-3.21363
-3.14767
-3.08925
-3.0375
-2.9915
-2.95039
-2.91345
-2.88008
-2.84983
-2.82238
-2.79749
-2.77497
-2.75464
-2.73633
-2.71989
-2.70541
-2.69262
-4.02028
-4.02492
-4.03021
-4.03555
-4.0417
-4.04834
-4.0543
-4.05838
-4.05996
-4.05901
-4.05559
-4.04964
-4.04111
-4.03017
-4.01707
-4.00205
-3.98506
-3.96571
-3.94335
-3.91696
-3.88498
-3.84529
-3.79575
-3.73447
-3.66045
-3.57969
-3.49833
-3.41982
-3.34641
-3.2792
-3.21846
-3.16391
-3.11499
-3.07105
-3.03142
-2.99552
-2.96287
-2.93313
-2.90602
-2.88136
-2.85898
-2.83872
-2.8204
-2.80388
-2.78928
-2.77631
-4.04078
-4.04626
-4.05224
-4.05774
-4.06309
-4.06804
-4.07187
-4.07392
-4.07391
-4.07175
-4.06726
-4.06022
-4.05062
-4.03867
-4.02458
-4.0084
-3.98993
-3.96877
-3.94427
-3.91565
-3.88192
-3.84185
-3.79427
-3.73827
-3.67413
-3.60515
-3.53504
-3.46647
-3.40137
-3.34088
-3.28542
-3.23495
-3.18914
-3.14753
-3.10963
-3.075
-3.0433
-3.01425
-2.98767
-2.96341
-2.94132
-2.92125
-2.90303
-2.88655
-2.87192
-2.85886
-4.06088
-4.06664
-4.07293
-4.07855
-4.08341
-4.08729
-4.08977
-4.09054
-4.08946
-4.08631
-4.08078
-4.0727
-4.06219
-4.04945
-4.03459
-4.01751
-3.99794
-3.97548
-3.94969
-3.92003
-3.88587
-3.84652
-3.8014
-3.75024
-3.69361
-3.63357
-3.57246
-3.51225
-3.45449
-3.40016
-3.34974
-3.30329
-3.26063
-3.22145
-3.1854
-3.15219
-3.12158
-3.09339
-3.06749
-3.04376
-3.02208
-3.00231
-2.98431
-2.96795
-2.95337
-2.94028
-4.08146
-4.08718
-4.09347
-4.09894
-4.10328
-4.10634
-4.10793
-4.10788
-4.10599
-4.10195
-4.09547
-4.08652
-4.07532
-4.06203
-4.04662
-4.02891
-4.0086
-3.9854
-3.95906
-3.92928
-3.89567
-3.85785
-3.81556
-3.76885
-3.71831
-3.66534
-3.61153
-3.55832
-3.5069
-3.45809
-3.41229
-3.36964
-3.33002
-3.29324
-3.25909
-3.22737
-3.19795
-3.17073
-3.14561
-3.12252
-3.10135
-3.08198
-3.06428
-3.04813
-3.03367
-3.02061
-4.10307
-4.10858
-4.11468
-4.11982
-4.12363
-4.1261
-4.12709
-4.12644
-4.12384
-4.119
-4.11176
-4.10222
-4.09058
-4.07693
-4.06115
-4.04303
-4.02235
-3.99891
-3.97264
-3.9434
-3.91095
-3.8751
-3.83575
-3.79306
-3.7476
-3.7004
-3.65261
-3.60528
-3.55932
-3.51535
-3.47372
-3.43454
-3.39776
-3.36328
-3.33098
-3.30079
-3.27262
-3.24644
-3.22219
-3.19982
-3.17924
-3.16035
-3.14302
-3.12715
-3.11287
-3.09989
-4.12601
-4.13127
-4.13705
-4.1418
-4.14519
-4.14724
-4.14779
-4.14659
-4.14332
-4.13782
-4.13008
-4.12024
-4.1084
-4.09454
-4.07852
-4.06021
-4.03948
-4.01627
-3.99056
-3.9623
-3.93137
-3.89763
-3.86111
-3.82202
-3.78088
-3.7385
-3.69574
-3.6534
-3.61212
-3.57237
-3.53442
-3.49835
-3.46418
-3.43186
-3.40137
-3.37268
-3.34579
-3.32069
-3.29736
-3.27577
-3.25584
-3.2375
-3.2206
-3.20506
-3.191
-3.17813