/*--------------------------------*- C++ -*----------------------------------*\
  =========                 |
  \\      /  F ield         | OpenFOAM: The Open Source CFD Toolbox
   \\    /   O peration     | Website:  https://openfoam.org
    \\  /    A nd           | Version:  7
     \\/     M anipulation  |
\*---------------------------------------------------------------------------*/
FoamFile
{
    version     2.0;
    format      ascii;
    class       volScalarField;
    location    "0.1";
    object      p_rgh;
}
// * * * * * * * * * * * * * * * * * * * * * * * * * * * * * * * * * * * * * //

dimensions      [1 -1 -2 0 0 0 0];

internalField   nonuniform List<scalar> 
9072
(
1610.41
1613.56
1614.7
1613.18
1608.34
1600.07
1588.46
1573.63
1555.64
1534.53
1510.31
1482.95
1452.38
1418.5
1381.14
1340.06
1294.96
1245.39
1190.75
1130.22
1062.73
986.895
901.139
804.051
695.321
577.325
457.358
350.021
261.304
192.986
139.051
96.3725
66.7432
41.4685
13.1107
4.09901
2.91897
2.62075
2.49961
2.44115
2.40995
2.39058
2.38098
2.37889
2.38198
2.39069
1609.71
1612.01
1612.13
1609.84
1604.57
1596.07
1584.34
1569.43
1551.37
1530.18
1505.85
1478.36
1447.62
1413.53
1375.9
1334.51
1289.01
1238.94
1183.68
1122.4
1053.97
977.037
890.082
791.872
682.392
564.542
445.878
337.261
252.407
189.469
140.052
97.1376
54.0927
19.3488
5.20828
2.87115
2.61811
2.54261
2.49901
2.4564
2.41875
2.39725
2.38683
2.38371
2.38483
2.39079
1609.07
1610.94
1610.02
1606.74
1600.79
1591.85
1579.81
1564.68
1546.44
1525.07
1500.55
1472.83
1441.83
1407.42
1369.42
1327.55
1281.47
1230.7
1174.59
1112.27
1042.65
964.394
876.152
776.968
667.246
550.494
434.554
330.015
247.66
186.047
136.7
89.9901
38.0702
7.1414
3.28015
2.80821
2.55721
2.50167
2.4757
2.44131
2.41072
2.39165
2.38181
2.37859
2.37995
2.38681
1608.4
1610.3
1608.81
1604.75
1598.14
1588.69
1576.28
1560.84
1542.34
1520.73
1495.97
1467.99
1436.69
1401.94
1363.53
1321.19
1274.53
1223.08
1166.17
1102.94
1032.32
953.067
863.99
764.368
654.882
539.406
425.468
322.483
240.003
177.506
123.534
61.8777
14.7281
3.93114
2.87218
2.57198
2.46192
2.44775
2.44129
2.41849
2.39455
2.37789
2.36863
2.36569
2.36862
2.37841
1607.71
1609.78
1608.07
1603.53
1596.43
1586.54
1573.77
1558.04
1539.27
1517.41
1492.41
1464.17
1432.59
1397.51
1358.73
1315.96
1268.82
1216.8
1159.27
1095.37
1024.08
944.265
854.872
755.322
646.39
532.013
418.82
314.284
228.521
158.642
82.866
21.596
4.94446
3.13586
2.64554
2.46539
2.4152
2.41432
2.41155
2.39429
2.37439
2.35924
2.3504
2.34778
2.3525
2.36526
1607.06
1609.26
1607.52
1602.73
1595.29
1585.08
1572.02
1556.03
1537.02
1514.94
1489.7
1461.22
1429.38
1394.01
1354.91
1311.76
1264.21
1211.75
1153.74
1089.38
1017.72
937.692
848.39
749.319
641.23
527.942
414.349
305.224
208.252
111.448
29.3827
5.63968
3.36486
2.75967
2.51232
2.41982
2.39256
2.3904
2.38492
2.36912
2.35114
2.33679
2.32806
2.32567
2.3319
2.34708
1606.51
1608.79
1607.12
1602.23
1594.6
1584.18
1570.91
1554.7
1535.49
1513.21
1487.76
1459.07
1426.99
1391.37
1351.97
1308.51
1260.62
1207.81
1149.47
1084.83
1013.01
933.063
844.189
745.964
639.082
527.158
412.18
293.468
165.351
47.1971
6.82073
3.65601
2.88575
2.56922
2.45322
2.39958
2.37721
2.36929
2.3593
2.34289
2.32541
2.31112
2.30213
2.29963
2.30689
2.32382
1606.12
1608.42
1606.9
1602.04
1594.34
1583.8
1570.39
1554.03
1534.66
1512.21
1486.58
1457.7
1425.42
1389.56
1349.92
1306.2
1258.04
1204.98
1146.42
1081.66
1009.89
930.26
842.116
745.1
639.898
529.9
413.012
267.275
98.2128
11.8035
4.23719
3.09518
2.65061
2.49517
2.42824
2.38677
2.36277
2.34846
2.33375
2.31569
2.29767
2.28276
2.27303
2.26993
2.2776
2.29554
1605.95
1608.24
1606.91
1602.17
1594.5
1583.94
1570.46
1554.01
1534.52
1511.94
1486.17
1457.12
1424.67
1388.62
1348.77
1304.85
1256.49
1203.26
1144.59
1079.85
1008.31
929.219
842.078
746.633
643.681
536.413
416.48
218.99
39.588
5.71292
3.49058
2.82411
2.56123
2.46744
2.41459
2.37484
2.34703
2.32681
2.30769
2.28743
2.26816
2.25209
2.24109
2.23676
2.24409
2.26214
1606.03
1608.32
1607.2
1602.66
1595.11
1584.6
1571.12
1554.63
1535.08
1512.4
1486.52
1457.35
1424.75
1388.55
1348.54
1304.46
1255.98
1202.65
1143.99
1079.39
1008.24
929.878
843.983
750.442
650.33
546.793
415.307
162.81
15.2026
4.71237
3.16063
2.70056
2.52858
2.45417
2.40288
2.36125
2.32916
2.30378
2.28067
2.25799
2.23703
2.21931
2.20648
2.20015
2.2063
2.22324
1606.43
1608.72
1607.85
1603.55
1596.18
1585.8
1572.38
1555.91
1536.33
1513.6
1487.65
1458.38
1425.67
1389.35
1349.23
1305.06
1256.51
1203.18
1144.6
1080.27
1009.63
932.176
847.723
756.348
659.47
560.485
419.809
131.035
11.5917
4.22126
3.00537
2.66206
2.51699
2.4436
2.38957
2.34486
2.30877
2.27903
2.25239
2.22725
2.2043
2.18451
2.1693
2.16004
2.164
2.178
1607.17
1609.51
1608.9
1604.89
1597.76
1587.55
1574.25
1557.85
1538.29
1515.55
1489.55
1460.22
1427.44
1391.04
1350.85
1306.64
1258.08
1204.82
1146.43
1082.46
1012.46
936.045
853.18
764.124
670.599
576.318
435.366
130.307
10.9058
4.00327
2.94008
2.64151
2.5052
2.42982
2.37267
2.32508
2.28566
2.25233
2.22263
2.1951
2.16999
2.14777
2.12959
2.11626
2.11684
2.12488
1608.29
1610.75
1610.4
1606.72
1599.87
1589.88
1576.76
1560.46
1540.96
1518.24
1492.25
1462.89
1430.07
1393.64
1353.43
1309.22
1260.73
1207.6
1149.48
1085.97
1016.72
941.445
860.259
773.575
683.352
593.33
457.282
139.133
10.278
3.87347
2.8894
2.61715
2.48732
2.41069
2.35139
2.30163
2.25967
2.2235
2.19119
2.16143
2.13407
2.10914
2.0874
2.06858
2.0643
2.06096
1609.81
1612.5
1612.44
1609.1
1602.57
1592.87
1579.96
1563.82
1544.43
1521.78
1495.82
1466.47
1433.65
1397.23
1357.06
1312.92
1264.55
1211.64
1153.86
1090.9
1022.47
948.425
868.965
784.641
697.617
611.053
472.208
133.916
9.45245
3.70867
2.82524
2.58393
2.46195
2.38562
2.32534
2.27426
2.23054
2.19223
2.15776
2.12597
2.09638
2.06854
2.04265
2.01671
2.00583
1.9813
1611.74
1614.74
1615
1612.04
1605.88
1596.5
1583.86
1567.93
1548.7
1526.15
1500.26
1470.96
1438.19
1401.82
1361.73
1317.72
1269.54
1216.91
1159.55
1097.21
1029.69
956.906
879.176
797.149
713.108
628.845
479.879
119.739
8.39902
3.5078
2.75043
2.54294
2.42975
2.35484
2.2946
2.243
2.19821
2.15836
2.12216
2.08858
2.05681
2.0259
1.99518
1.96034
1.94027
1.87579
1614.08
1617.36
1617.91
1615.28
1609.44
1600.35
1587.96
1572.24
1553.16
1530.72
1504.91
1475.69
1442.98
1406.7
1366.73
1322.88
1274.93
1222.63
1165.75
1104.08
1037.48
965.957
889.873
809.977
728.353
644.246
482.95
105.49
7.17263
3.28966
2.66214
2.49241
2.39142
2.3198
2.26101
2.20984
2.16466
2.12386
2.08633
2.0511
2.01707
1.98271
1.94602
1.90048
1.86223
1.73349
0.994809
0.998245
0.999463
0.998087
0.993816
0.98697
0.978165
0.967938
0.956824
0.94517
0.933238
0.921233
0.909251
0.897441
0.885939
0.874791
0.864025
0.853654
0.843698
0.83417
0.825071
0.816438
0.808279
0.800632
0.793532
0.787004
0.781077
0.775768
0.771084
0.767053
0.763661
0.760936
0.758866
0.757457
0.756693
0.756531
0.756828
0.757476
0.994413
0.997256
0.997885
0.996225
0.992014
0.985373
0.976888
0.967073
0.9563
0.944907
0.933164
0.921293
0.909523
0.897914
0.886473
0.875335
0.864593
0.854252
0.844321
0.834813
0.825727
0.817102
0.808949
0.801304
0.794206
0.787678
0.78175
0.776442
0.771756
0.767726
0.76433
0.761596
0.759508
0.758061
0.757226
0.756944
0.757064
0.75754
0.993861
0.996677
0.996963
0.995024
0.990793
0.984291
0.976036
0.966471
0.955931
0.944738
0.933162
0.921421
0.909754
0.898217
0.886835
0.875741
0.865032
0.854716
0.844801
0.835305
0.826226
0.817605
0.809456
0.801813
0.794715
0.788187
0.782257
0.77695
0.772262
0.768227
0.764825
0.762075
0.759962
0.758472
0.757561
0.757168
0.757174
0.757592
0.993142
0.99637
0.99666
0.994567
0.990269
0.983791
0.975629
0.966173
0.955753
0.944681
0.933214
0.921565
0.909943
0.89843
0.887085
0.876023
0.86533
0.855025
0.845113
0.83562
0.826543
0.817925
0.80978
0.802138
0.795041
0.788512
0.78258
0.777269
0.772576
0.768532
0.765117
0.762346
0.760202
0.758665
0.757686
0.757213
0.75718
0.75762
0.99225
0.996169
0.99674
0.994653
0.990293
0.983761
0.975586
0.966137
0.955751
0.944728
0.933315
0.921717
0.910113
0.898603
0.887269
0.876212
0.865514
0.855203
0.845284
0.835786
0.82671
0.818094
0.809955
0.802317
0.795221
0.788692
0.782757
0.777442
0.77274
0.768684
0.765252
0.762456
0.760279
0.758699
0.757669
0.757144
0.757119
0.757608
0.991147
0.996041
0.997111
0.995194
0.990791
0.984154
0.975877
0.966351
0.95592
0.944881
0.93347
0.92188
0.91027
0.898743
0.887394
0.876316
0.865593
0.855259
0.845323
0.835815
0.826738
0.818126
0.809995
0.802363
0.795271
0.788744
0.782806
0.777486
0.772774
0.768702
0.765252
0.762431
0.760223
0.75861
0.757543
0.756992
0.756996
0.757538
0.989759
0.99601
0.997796
0.996197
0.991767
0.984971
0.976508
0.966819
0.956263
0.945142
0.933681
0.922057
0.910412
0.898844
0.887454
0.876332
0.865563
0.855192
0.845229
0.835706
0.826628
0.818021
0.809899
0.802278
0.795192
0.788669
0.78273
0.777404
0.772682
0.768593
0.765123
0.76228
0.760047
0.758409
0.757322
0.756764
0.75681
0.757399
0.987962
0.996115
0.998876
0.99772
0.993255
0.986229
0.977488
0.967545
0.956784
0.945514
0.933947
0.922245
0.910534
0.898899
0.887441
0.876254
0.865421
0.854999
0.845001
0.835459
0.826378
0.817777
0.809668
0.80206
0.794984
0.788469
0.782529
0.777197
0.772464
0.768359
0.764871
0.762008
0.759757
0.758105
0.757012
0.756463
0.756554
0.757183
0.985566
0.996424
1.0005
0.999857
0.995309
0.987952
0.978827
0.968533
0.957484
0.945995
0.934265
0.922439
0.910626
0.898897
0.887348
0.876074
0.865164
0.85468
0.844639
0.835074
0.825989
0.817395
0.8093
0.801709
0.794648
0.788142
0.782204
0.776866
0.772123
0.768002
0.764499
0.761621
0.759358
0.757702
0.756615
0.756088
0.756227
0.756885
0.982289
0.99707
1.00293
1.00275
0.997998
0.99017
0.980536
0.969785
0.958361
0.94658
0.934628
0.922629
0.910677
0.898826
0.887164
0.875788
0.864788
0.854233
0.844144
0.834552
0.825461
0.816874
0.808796
0.801226
0.794182
0.787688
0.781754
0.776412
0.77166
0.767524
0.764008
0.76112
0.758854
0.757203
0.756134
0.755639
0.755823
0.756502
0.977965
0.998288
1.00656
1.00657
1.00141
0.992919
0.982623
0.9713
0.95941
0.94726
0.935023
0.922804
0.910675
0.898676
0.886882
0.875389
0.86429
0.853656
0.843514
0.833892
0.824793
0.816215
0.808156
0.800609
0.793585
0.787105
0.781178
0.775832
0.771072
0.766925
0.763399
0.760507
0.758244
0.756608
0.755568
0.755113
0.755342
0.756032
0.973028
1.0005
1.01197
1.01156
1.00562
0.996226
0.985091
0.973071
0.960619
0.948024
0.935438
0.922948
0.910606
0.898434
0.886491
0.874872
0.863666
0.852949
0.84275
0.833095
0.823988
0.815418
0.807378
0.799857
0.792856
0.786393
0.780473
0.775125
0.770359
0.766203
0.762671
0.75978
0.757529
0.755916
0.754914
0.754508
0.75478
0.755476
0.967979
1.00528
1.02006
1.01794
1.01069
1.0001
0.987934
0.975082
0.96197
0.948851
0.935854
0.923045
0.910455
0.898084
0.88598
0.874226
0.86291
0.852106
0.841848
0.832159
0.823041
0.81448
0.806461
0.798966
0.79199
0.785544
0.779633
0.774286
0.769516
0.765355
0.761822
0.758937
0.756703
0.755122
0.754167
0.753818
0.754135
0.754833
0.960526
1.01502
1.03201
1.02594
1.01662
1.00455
0.991141
0.977318
0.963442
0.949718
0.936246
0.92307
0.910194
0.897604
0.885325
0.87343
0.862001
0.85111
0.840792
0.831068
0.821937
0.813383
0.805382
0.797913
0.790963
0.784535
0.778635
0.773291
0.76852
0.764358
0.760828
0.757956
0.755749
0.754212
0.753316
0.753035
0.753404
0.754103
0.944148
1.0287
1.04805
1.03564
1.02332
1.00951
0.994687
0.979755
0.965015
0.950608
0.936602
0.923013
0.909819
0.896986
0.884523
0.872484
0.860942
0.849965
0.839586
0.829825
0.82068
0.812129
0.804145
0.796699
0.789772
0.783362
0.777474
0.772135
0.767367
0.763207
0.759686
0.756834
0.754663
0.75318
0.752356
0.752155
0.752583
0.753285
0.930524
1.04194
1.06477
1.04661
1.03052
1.01474
0.998407
0.982288
0.966631
0.95151
0.936949
0.922932
0.909411
0.896332
0.883686
0.87151
0.859863
0.848805
0.83837
0.828575
0.819414
0.810864
0.802892
0.795464
0.788556
0.782161
0.776284
0.770947
0.766181
0.762021
0.758505
0.755666
0.753524
0.752085
0.75132
0.751189
0.751669
0.752373
1618.35
1621.75
1622.62
1620.24
1614.62
1605.74
1593.55
1578
1559.06
1536.74
1511.03
1481.89
1449.3
1413.17
1373.41
1329.86
1282.33
1230.62
1174.56
1113.98
1048.82
979.158
905.392
828.372
748.906
661.78
462.693
74.9178
5.59267
2.95447
2.50012
2.39394
2.3224
2.26248
2.20968
2.16134
2.11683
2.07544
2.03642
1.9988
1.96109
1.92078
1.87346
1.8093
1.70843
1.40686
1625.5
1628.96
1629.91
1627.58
1622.01
1613.23
1601.15
1585.73
1566.96
1544.82
1519.31
1490.42
1458.13
1422.38
1383.09
1340.15
1293.4
1242.71
1187.94
1128.98
1065.79
998.491
927.44
853.292
775.495
686.835
403.853
34.5866
4.07039
2.54677
2.30845
2.2605
2.2201
2.17921
2.13797
2.09634
2.0553
2.01526
1.97607
1.93699
1.89651
1.85206
1.79894
1.72796
1.62819
1.498
1634.04
1637.45
1638.42
1636.17
1630.72
1622.1
1610.24
1595.09
1576.63
1554.84
1529.74
1501.31
1469.54
1434.4
1395.84
1353.75
1308.05
1258.61
1205.33
1148.16
1087.06
1022.15
953.748
882.247
805.938
718.128
314.858
13.2981
3.24015
2.29044
2.16592
2.14419
2.12075
2.09309
2.06122
2.02616
1.98951
1.95223
1.91458
1.87618
1.83601
1.79245
1.74313
1.68492
1.61732
1.55415
1643.98
1647.25
1648.21
1646.04
1640.75
1632.37
1620.82
1606.05
1588.03
1566.75
1542.22
1514.43
1483.38
1449.06
1411.42
1370.41
1325.94
1277.94
1226.33
1171.07
1112.15
1049.68
983.971
915.114
840.193
728.837
220.853
6.67496
2.74681
2.1241
2.05519
2.04298
2.02772
2.00786
1.98272
1.95331
1.92117
1.88736
1.85237
1.8161
1.77804
1.73732
1.69283
1.64316
1.58691
1.52474
1655.33
1658.42
1659.33
1657.23
1652.12
1644.01
1632.82
1618.5
1601.02
1580.35
1556.51
1529.49
1499.31
1465.96
1429.42
1389.63
1346.55
1300.12
1250.3
1197.05
1140.39
1080.44
1017.5
951.38
878.022
703.052
137.068
4.97669
2.38673
1.99735
1.95981
1.95073
1.93972
1.92484
1.90479
1.88025
1.85248
1.82244
1.7907
1.75739
1.72231
1.68502
1.64482
1.60065
1.55124
1.49598
1668.14
1671.03
1671.87
1669.84
1664.91
1657.09
1646.3
1632.48
1615.58
1595.61
1572.55
1546.41
1517.21
1484.94
1449.6
1411.15
1369.58
1324.83
1276.88
1225.72
1171.38
1114
1053.91
990.597
919.038
649.142
71.5977
3.72373
2.1028
1.88913
1.8708
1.86358
1.85552
1.84429
1.82823
1.80785
1.78411
1.75783
1.72956
1.69959
1.66793
1.63439
1.59855
1.55972
1.51728
1.47069
1682.44
1685.12
1685.91
1683.94
1679.2
1671.68
1661.31
1648.01
1631.76
1612.53
1590.31
1565.12
1536.98
1505.88
1471.83
1434.82
1394.82
1351.83
1305.82
1256.8
1204.81
1150.05
1092.83
1032.26
962.66
559.554
29.843
2.84854
1.89383
1.794
1.78595
1.78035
1.77476
1.76624
1.75334
1.73644
1.71628
1.69352
1.6687
1.64215
1.61397
1.58413
1.55237
1.51823
1.48142
1.44133
1698.26
1700.75
1701.47
1699.58
1695.03
1687.83
1677.89
1665.15
1649.56
1631.11
1609.78
1585.59
1558.56
1528.69
1496
1460.48
1422.13
1380.95
1336.93
1290.07
1240.47
1188.32
1133.91
1075.83
1008.4
441.842
10.7911
2.33357
1.75551
1.71092
1.70612
1.70141
1.69738
1.69071
1.68023
1.66621
1.64917
1.62963
1.60806
1.58478
1.55991
1.53348
1.50533
1.47513
1.4428
1.40782
1715.62
1717.92
1718.59
1716.78
1712.44
1705.56
1696.07
1683.9
1669
1651.34
1630.93
1607.78
1581.89
1553.3
1522.01
1488.03
1451.37
1412.04
1370.03
1325.37
1278.15
1228.61
1176.92
1121.02
1032.33
328.089
5.38866
2.04675
1.66329
1.63742
1.63127
1.62644
1.62297
1.61748
1.60888
1.59725
1.58292
1.56629
1.5477
1.52743
1.5056
1.48225
1.45726
1.43042
1.40183
1.37104
1734.54
1736.65
1737.29
1735.57
1731.43
1724.89
1715.86
1704.26
1690.05
1673.21
1653.73
1631.63
1606.92
1579.63
1549.77
1517.37
1482.43
1444.96
1404.98
1362.53
1317.7
1270.76
1221.76
1167.94
1017.65
233.434
4.17566
1.84466
1.58536
1.56722
1.55917
1.554
1.55075
1.54617
1.53913
1.52956
1.51763
1.50359
1.4877
1.47016
1.45107
1.43047
1.40829
1.3844
1.35898
1.33168
1755
1756.95
1757.55
1755.92
1752
1745.79
1737.22
1726.2
1712.69
1696.67
1678.14
1657.1
1633.58
1607.61
1579.21
1548.39
1515.18
1479.6
1441.65
1401.39
1358.94
1314.59
1268.22
1216.49
986.807
154.141
3.25852
1.67089
1.50789
1.49595
1.48756
1.48273
1.48002
1.47638
1.4708
1.46309
1.4533
1.44159
1.42813
1.41304
1.39641
1.37829
1.35864
1.33738
1.31474
1.29043
1776.99
1778.78
1779.36
1777.82
1774.12
1768.25
1760.13
1749.69
1736.88
1721.69
1704.1
1684.14
1661.82
1637.18
1610.23
1581.01
1549.53
1515.82
1479.89
1441.81
1401.72
1359.92
1316.13
1266.48
932.83
92.1227
2.53023
1.52014
1.42945
1.42228
1.41525
1.41192
1.41031
1.40786
1.40374
1.39777
1.38993
1.38032
1.36903
1.35616
1.34177
1.32591
1.30858
1.28972
1.2696
1.24795
1800.48
1802.13
1802.69
1801.24
1797.76
1792.22
1784.56
1774.69
1762.59
1748.22
1731.58
1712.69
1691.58
1668.27
1642.78
1615.15
1585.39
1553.53
1519.6
1483.67
1445.91
1406.61
1365.32
1317.76
855.726
47.6927
1.94969
1.384
1.34848
1.34602
1.34234
1.3416
1.3416
1.34054
1.33791
1.33358
1.32753
1.31981
1.3105
1.29965
1.28732
1.27356
1.25839
1.24177
1.22397
1.20476
1825.45
1826.97
1827.5
1826.15
1822.88
1817.68
1810.47
1801.18
1789.77
1776.22
1760.54
1742.72
1722.81
1700.82
1676.79
1650.73
1622.67
1592.64
1560.69
1526.88
1491.4
1454.54
1415.63
1370.14
757.446
20.4901
1.53379
1.26337
1.26734
1.27016
1.27053
1.27254
1.27423
1.27457
1.27338
1.27058
1.26617
1.26018
1.25267
1.24369
1.23328
1.2215
1.20836
1.19383
1.17821
1.16125
1851.86
1853.24
1853.76
1852.5
1849.45
1844.58
1837.81
1829.1
1818.39
1805.66
1790.92
1774.18
1755.46
1734.79
1712.19
1687.68
1661.3
1633.08
1603.07
1571.34
1538.1
1503.6
1466.92
1423.51
643.023
7.74911
1.30639
1.17379
1.19369
1.19916
1.20196
1.20569
1.20862
1.21015
1.21023
1.20882
1.20591
1.20153
1.1957
1.18848
1.17989
1.16998
1.15874
1.14618
1.13256
1.1177
1879.66
1880.92
1881.41
1880.26
1877.41
1872.87
1866.55
1858.41
1848.39
1836.48
1822.68
1806.99
1789.45
1770.08
1748.9
1725.93
1701.21
1674.77
1646.67
1616.99
1585.93
1553.67
1519.04
1473.12
528.87
3.37512
1.21424
1.11726
1.13109
1.13431
1.13712
1.14123
1.14481
1.14724
1.14842
1.14828
1.14677
1.14388
1.13966
1.13412
1.12728
1.11914
1.1097
1.09898
1.08724
1.07431
1908.79
1909.93
1910.41
1909.35
1906.72
1902.5
1896.63
1889.05
1879.71
1868.61
1855.74
1841.1
1824.73
1806.64
1786.86
1765.41
1742.32
1717.64
1691.42
1663.74
1634.8
1604.72
1572.07
1478.04
437.355
2.75808
1.15825
1.06994
1.07348
1.07296
1.07468
1.07854
1.08245
1.08562
1.08779
1.08883
1.08865
1.08722
1.08455
1.08063
1.07545
1.06902
1.0613
1.05233
1.04236
1.03125
1939.21
1940.24
1940.7
1939.74
1937.31
1933.42
1927.98
1920.96
1912.3
1902
1890.05
1876.45
1861.22
1844.39
1825.99
1806.04
1784.57
1761.62
1737.25
1711.53
1684.66
1656.69
1626.05
1480.7
353.596
2.25161
1.08591
1.016
1.01502
1.01226
1.01311
1.0168
1.02108
1.02498
1.02816
1.03038
1.03151
1.03151
1.03033
1.02797
1.02441
1.01963
1.01357
1.00628
0.997992
0.988594
1970.85
1971.76
1972.22
1971.34
1969.13
1965.55
1960.56
1954.09
1946.1
1936.59
1925.54
1912.96
1898.87
1883.28
1866.24
1847.77
1827.9
1806.65
1784.09
1760.29
1735.43
1709.52
1680.88
1471.56
278.633
1.82493
1.00694
0.957937
0.954898
0.95098
0.951588
0.955471
0.960322
0.965109
0.969372
0.972828
0.975311
0.976728
0.977027
0.976184
0.974182
0.970978
0.966533
0.960864
0.954191
0.94643
2003.64
2004.45
2004.89
2004.11
2002.1
1998.85
1994.29
1988.37
1981.04
1972.31
1962.15
1950.57
1937.6
1923.25
1907.55
1890.53
1872.22
1852.64
1831.85
1809.93
1787.05
1763.17
1736.5
1450.41
213.06
1.47007
0.93335
0.897422
0.892571
0.888461
0.889548
0.894104
0.899857
0.90575
0.911262
0.916067
0.919968
0.92284
0.924615
0.92527
0.924786
0.923119
0.920225
0.916124
0.911013
0.904822
2037.52
2038.23
2038.66
2037.98
2036.18
2033.24
2029.11
2023.73
2017.07
2009.09
1999.81
1989.23
1977.36
1964.23
1949.85
1934.26
1917.47
1899.53
1880.47
1860.39
1839.45
1817.56
1792.82
1417.01
156.832
1.22918
0.861243
0.832885
0.827051
0.823979
0.826436
0.832265
0.839334
0.846628
0.853602
0.85991
0.865336
0.86973
0.873019
0.875187
0.876217
0.876065
0.87469
0.872117
0.86852
0.863842
2072.43
2073.04
2073.45
2072.87
2071.28
2068.66
2064.96
2060.12
2054.1
2046.88
2038.47
2028.86
2018.09
2006.15
1993.08
1978.88
1963.59
1947.25
1929.9
1911.62
1892.58
1872.61
1849.79
1371.2
109.895
1.02924
0.784312
0.762169
0.757344
0.756983
0.761894
0.769709
0.778574
0.787595
0.796263
0.804244
0.811313
0.817312
0.822173
0.825892
0.828453
0.829816
0.829948
0.828878
0.826759
0.823545
2108.28
2108.79
2109.2
2108.71
2107.34
2105.04
2101.76
2097.45
2092.08
2085.61
2078.05
2069.41
2059.7
2048.94
2037.14
2024.33
2010.51
1995.75
1980.07
1963.57
1946.37
1928.29
1907.39
1313.21
72.0509
0.83062
0.695995
0.683953
0.683217
0.6875
0.69603
0.706561
0.717694
0.728751
0.739322
0.749121
0.757936
0.765616
0.772105
0.777409
0.781519
0.784399
0.786027
0.786439
0.785762
0.783961
2145
2145.41
2145.81
2145.44
2144.29
2142.31
2139.46
2135.68
2130.94
2125.21
2118.5
2110.8
2102.14
2092.53
2081.98
2070.51
2058.16
2044.94
2030.91
2016.14
2000.76
1984.54
1965.57
1243.43
42.9338
0.609887
0.592054
0.598913
0.605885
0.616435
0.629449
0.643229
0.656981
0.670307
0.682937
0.694663
0.705303
0.714725
0.722889
0.729807
0.735475
0.739865
0.74297
0.744832
0.745552
0.745106
2182.51
2182.82
2183.23
2182.98
2182.06
2180.42
2177.99
2174.73
2170.61
2165.62
2159.73
2152.96
2145.33
2136.85
2127.53
2117.39
2106.46
2094.77
2082.35
2069.27
2055.66
2041.27
2024.25
1162.28
22.1225
0.39656
0.480142
0.511916
0.528688
0.54567
0.563154
0.580259
0.596744
0.612456
0.627242
0.640968
0.653492
0.664705
0.674582
0.683137
0.690368
0.696255
0.700809
0.704081
0.706145
0.706992
2220.72
2220.91
2221.37
2221.27
2220.61
2219.31
2217.32
2214.57
2211.07
2206.78
2201.7
2195.84
2189.22
2181.84
2173.73
2164.9
2155.37
2145.17
2134.32
2122.89
2111.02
2098.42
2083.27
1070.58
8.94817
0.26378
0.383424
0.432183
0.456151
0.47748
0.498311
0.518272
0.537333
0.555414
0.572395
0.588167
0.602608
0.615638
0.627246
0.637446
0.646231
0.653595
0.659567
0.664203
0.667557
0.669631
2259.44
2259.53
2260.09
2260.21
2259.86
2258.93
2257.38
2255.16
2252.25
2248.65
2244.36
2239.39
2233.75
2227.46
2220.53
2212.98
2204.82
2196.07
2186.76
2176.96
2166.79
2155.93
2142.6
970.021
2.69135
0.22818
0.319853
0.365917
0.390458
0.412963
0.435575
0.457702
0.479054
0.499412
0.518584
0.536417
0.552789
0.567638
0.58097
0.592796
0.60311
0.611919
0.619269
0.625223
0.62981
0.633052
2298.61
2298.52
2299.2
2299.61
2299.65
2299.17
2298.08
2296.39
2294.08
2291.16
2287.64
2283.53
2278.85
2273.62
2267.85
2261.55
2254.73
2247.41
2239.62
2231.42
2222.92
2213.8
2202.31
862.78
0.692146
0.235396
0.279831
0.309135
0.32933
0.351063
0.374539
0.39843
0.421928
0.444527
0.465895
0.48581
0.504128
0.520802
0.535842
0.549262
0.561064
0.571275
0.579956
0.587176
0.592942
0.597293
2337.79
2337.73
2338.61
2339.33
2339.78
2339.78
2339.21
2338.08
2336.38
2334.14
2331.38
2328.13
2324.4
2320.2
2315.55
2310.47
2304.96
2299.05
2292.75
2286.13
2279.29
2271.95
2262.41
749.276
0.532617
0.226587
0.237695
0.252222
0.268297
0.289498
0.31408
0.339934
0.365739
0.390698
0.414339
0.436378
0.456666
0.475171
0.491909
0.506898
0.520154
0.531722
0.541686
0.550116
0.557003
0.562406
2374.71
2375.89
2377.68
2379.15
2380.11
2380.6
2380.55
2379.98
2378.89
2377.34
2375.34
2372.92
2370.11
2366.92
2363.37
2359.46
2355.23
2350.69
2345.85
2340.78
2335.6
2330.12
2322.73
626.918
0.398264
0.185397
0.1814
0.189168
0.204067
0.226418
0.253218
0.281754
0.310323
0.33792
0.363981
0.388209
0.410488
0.430815
0.449226
0.46575
0.480422
0.49331
0.504511
0.514099
0.522051
0.528453
2405.08
2410.56
2414.53
2417.98
2420.04
2421.24
2421.77
2421.76
2421.28
2420.39
2419.13
2417.52
2415.6
2413.37
2410.85
2408.07
2405.06
2401.82
2398.38
2394.82
2391.29
2387.77
2382.78
500.112
0.287094
0.122588
0.112033
0.117954
0.134991
0.160891
0.191509
0.223739
0.255692
0.286287
0.314957
0.341458
0.365745
0.387873
0.40791
0.425911
0.441942
0.456095
0.46848
0.479175
0.488142
0.495495
2353.3
2434.65
2445.46
2453.37
2457.62
2460.2
2461.74
2462.54
2462.8
2462.64
2462.14
2461.35
2460.29
2458.99
2457.48
2455.78
2453.93
2451.94
2449.85
2447.73
2445.82
2444.22
2441.68
386.698
0.157138
0.0478975
0.0290422
0.0366661
0.060176
0.0926252
0.129006
0.166097
0.202103
0.23605
0.267497
0.29633
0.322623
0.346507
0.368101
0.387505
0.40482
0.420167
0.433665
0.445399
0.455322
0.463578
1046.27
1602.33
2071.77
2361.59
2471.08
2492.21
2496.97
2499.93
2501.66
2502.66
2503.17
2503.31
2503.14
2502.7
2502.05
2501.22
2500.25
2499.14
2497.95
2496.79
2495.96
2495.99
2495.09
296.109
0.0363458
-0.0484708
-0.0722858
-0.0563733
-0.0205553
0.0221863
0.0663994
0.109491
0.150123
0.187669
0.221963
0.253115
0.281353
0.306906
0.329959
0.350668
0.369177
0.385627
0.400153
0.412844
0.423652
0.43275
-1.37555
148.087
443.888
909.163
1404.7
1772.86
2013.64
2164.66
2251.49
2300.68
2325.26
2332.33
2326.66
2310.71
2286.34
2254.88
2217.51
2173.52
2125.53
2076.18
2028.66
1999.04
2077.46
196.888
-0.317318
-0.19794
-0.193977
-0.159595
-0.105108
-0.0483916
0.00533539
0.0551433
0.100642
0.141789
0.178834
0.212171
0.242206
0.269279
0.293652
0.31554
0.335127
0.352574
0.368027
0.381586
0.393201
0.40307
-1.23804
-1.04515
-1.296
-1.37175
36.2947
163.34
304.24
432.983
536.599
607.174
645.374
656.194
645.588
618.466
579.866
533.614
484.176
435.233
388.13
344.321
306.337
279.546
381.303
71.6686
-0.808151
-0.40032
-0.328874
-0.263417
-0.186568
-0.114919
-0.0514859
0.00480973
0.054805
0.0991796
0.138643
0.173878
0.20546
0.233835
0.259343
0.282253
0.302778
0.321095
0.33736
0.351687
0.364023
0.374593
-1.20078
-1.20186
-1.23461
-1.23344
-1.25778
-1.35234
-1.43908
-1.46212
-1.46063
-1.45253
-1.44188
-1.43001
-1.41746
-1.40419
-1.38988
-1.37463
-1.35924
-1.34581
-1.33695
-1.33854
-1.34698
-1.33776
-1.195
3.04122
-0.91173
-0.600415
-0.458531
-0.351357
-0.254902
-0.171866
-0.100924
-0.0396316
0.0137756
0.0605891
0.101891
0.13858
0.171358
0.200756
0.227174
0.250917
0.272216
0.291258
0.308209
0.323194
0.336161
0.347352
-1.16539
-1.16258
-1.18034
-1.19001
-1.20412
-1.22562
-1.24747
-1.25859
-1.26284
-1.26356
-1.26209
-1.25923
-1.2554
-1.25063
-1.24491
-1.23856
-1.23233
-1.22718
-1.22384
-1.22273
-1.22197
-1.21652
-1.18682
-1.11088
-0.91633
-0.685074
-0.529505
-0.406464
-0.302762
-0.21504
-0.140622
-0.0768207
-0.0216117
0.0265549
0.0689336
0.106519
0.140074
0.170172
0.197244
0.221608
0.243499
0.263107
0.280608
0.296136
0.309636
0.321364
-1.12996
-1.12522
-1.13584
-1.14772
-1.16457
-1.18428
-1.20261
-1.21534
-1.22214
-1.22433
-1.22324
-1.21991
-1.21485
-1.20817
-1.20001
-1.19078
-1.18106
-1.1713
-1.16154
-1.15033
-1.13417
-1.10934
-1.07367
-1.00843
-0.851699
-0.683044
-0.546306
-0.430167
-0.330018
-0.243986
-0.170127
-0.106411
-0.0511041
-0.00273772
0.0399038
0.0777922
0.111681
0.142143
0.1696
0.19436
0.216651
0.23666
0.25457
0.270523
0.284452
0.296627
-1.09333
-1.09269
-1.09851
-1.10674
-1.11938
-1.13469
-1.14945
-1.16046
-1.16665
-1.16856
-1.16715
-1.16318
-1.15695
-1.14858
-1.1383
-1.12654
-1.11366
-1.09978
-1.0846
-1.0666
-1.04209
-1.00688
-0.958085
-0.887485
-0.774701
-0.650936
-0.537008
-0.433968
-0.342112
-0.261316
-0.190701
-0.129034
-0.0750236
-0.0274617
0.0147046
0.0523464
0.0861542
0.116654
0.144231
0.169163
0.191662
0.211908
0.230088
0.246344
0.260599
0.273128
-1.05488
-1.05762
-1.06234
-1.06826
-1.07647
-1.08635
-1.09596
-1.10316
-1.10698
-1.1075
-1.10518
-1.10031
-1.09295
-1.08321
-1.07138
-1.05779
-1.0426
-1.02563
-1.00635
-0.983508
-0.954626
-0.916263
-0.865529
-0.798334
-0.710123
-0.612535
-0.516919
-0.426845
-0.344337
-0.270171
-0.204208
-0.145789
-0.0940372
-0.0480353
-0.00693082
0.0300103
0.0633799
0.093627
0.121077
0.145969
0.168492
0.188818
0.207133
0.223574
0.238052
0.250845
-1.01422
-1.01886
-1.02415
-1.02949
-1.03564
-1.04228
-1.04824
-1.05232
-1.0539
-1.05295
-1.04953
-1.04358
-1.03505
-1.02411
-1.01102
-0.995995
-0.979003
-0.959651
-0.937287
-0.9109
-0.878925
-0.839232
-0.789688
-0.728407
-0.654394
-0.573631
-0.492267
-0.413758
-0.340347
-0.273143
-0.212402
-0.157849
-0.108932
-0.0649898
-0.0253613
0.010539
0.0431851
0.072932
0.100038
0.124697
0.147077
0.16734
0.185663
0.202175
0.216776
0.229746
-0.972121
-0.977601
-0.983579
-0.989085
-0.994438
-0.999387
-1.00321
-1.00526
-1.00525
-1.0031
-0.998601
-0.99156
-0.981968
-0.970016
-0.955922
-0.93974
-0.921277
-0.900113
-0.875612
-0.846998
-0.81326
-0.773198
-0.725612
-0.669614
-0.605469
-0.536494
-0.466384
-0.39781
-0.332718
-0.272225
-0.216764
-0.166292
-0.120483
-0.0788735
-0.0409751
-0.00634771
0.0253592
0.054405
0.0809818
0.105245
0.127337
0.147407
0.165621
0.182101
0.196733
0.2098
-0.929629
-0.935391
-0.941674
-0.947293
-0.952152
-0.956039
-0.958516
-0.959287
-0.958207
-0.955055
-0.949522
-0.941449
-0.930935
-0.918196
-0.903336
-0.88626
-0.866685
-0.844227
-0.81844
-0.788781
-0.754616
-0.715268
-0.67015
-0.618987
-0.562353
-0.502312
-0.441208
-0.380997
-0.323233
-0.268906
-0.218482
-0.172032
-0.129374
-0.0901941
-0.0541503
-0.0209393
0.00967442
0.0378643
0.063765
0.0874963
0.109178
0.128944
0.146947
0.1633
0.177881
0.190974
-0.887613
-0.893333
-0.899623
-0.905093
-0.909427
-0.912493
-0.914078
-0.914029
-0.912141
-0.908096
-0.901615
-0.892674
-0.881467
-0.868177
-0.852772
-0.835059
-0.814752
-0.791551
-0.765212
-0.735429
-0.701815
-0.663995
-0.621713
-0.574997
-0.524457
-0.47149
-0.417683
-0.364471
-0.31305
-0.264234
-0.218444
-0.175788
-0.13617
-0.099391
-0.0652345
-0.0335162
-0.0040976
0.0231246
0.0482384
0.071332
0.0925035
0.111869
0.129572
0.145718
0.160177
0.173236
-0.846626
-0.852131
-0.858237
-0.863371
-0.867186
-0.869649
-0.870645
-0.86999
-0.867394
-0.862549
-0.855312
-0.845772
-0.834131
-0.820481
-0.804705
-0.786585
-0.765898
-0.742466
-0.716193
-0.686947
-0.654503
-0.618648
-0.579297
-0.53661
-0.491155
-0.443954
-0.39616
-0.348834
-0.30287
-0.258902
-0.217273
-0.178089
-0.141311
-0.106831
-0.0745364
-0.0443382
-0.016173
0.0100087
0.0342568
0.056632
0.0772121
0.096099
0.113428
0.129299
0.14358
0.156558
-0.806966
-0.812225
-0.818009
-0.822754
-0.826146
-0.828192
-0.828749
-0.827541
-0.824277
-0.818775
-0.811039
-0.801193
-0.789354
-0.775494
-0.759478
-0.741166
-0.720437
-0.697226
-0.671514
-0.643256
-0.612322
-0.578589
-0.542063
-0.502972
-0.461835
-0.419451
-0.376696
-0.334355
-0.293075
-0.253328
-0.215372
-0.179307
-0.145133
-0.112815
-0.0823229
-0.0536361
-0.0267468
-0.00164661
0.021683
0.0432795
0.0632044
0.0815497
0.0984455
0.113989
0.128049
0.140911
-0.768794
-0.773809
-0.779223
-0.783609
-0.786675
-0.788386
-0.788512
-0.786755
-0.782924
-0.776992
-0.769018
-0.759087
-0.74721
-0.733284
-0.717198
-0.698926
-0.678477
-0.655854
-0.631054
-0.604049
-0.574761