/*--------------------------------*- C++ -*----------------------------------*\
  =========                 |
  \\      /  F ield         | OpenFOAM: The Open Source CFD Toolbox
   \\    /   O peration     | Website:  https://openfoam.org
    \\  /    A nd           | Version:  7
     \\/     M anipulation  |
\*---------------------------------------------------------------------------*/
FoamFile
{
    version     2.0;
    format      ascii;
    class       surfaceScalarField;
    location    "0.1";
    object      phi;
}
// * * * * * * * * * * * * * * * * * * * * * * * * * * * * * * * * * * * * * //

dimensions      [0 3 -1 0 0 0 0];

internalField   nonuniform List<scalar> 
17936
(
2.48292e-07
-2.48292e-07
1.4723e-06
-1.22401e-06
3.10011e-06
-1.62781e-06
4.79471e-06
-1.6946e-06
6.46155e-06
-1.66684e-06
8.08092e-06
-1.61938e-06
9.65481e-06
-1.57389e-06
1.11928e-05
-1.538e-06
1.27071e-05
-1.51432e-06
1.42106e-05
-1.50348e-06
1.57158e-05
-1.50516e-06
1.72348e-05
-1.51902e-06
1.87799e-05
-1.5451e-06
2.03637e-05
-1.58387e-06
2.20001e-05
-1.63633e-06
2.37044e-05
-1.70427e-06
2.5495e-05
-1.79067e-06
2.73947e-05
-1.89967e-06
2.94316e-05
-2.03692e-06
3.16411e-05
-2.20953e-06
3.40643e-05
-2.42314e-06
3.67411e-05
-2.67684e-06
3.96933e-05
-2.95221e-06
4.2886e-05
-3.19271e-06
4.6178e-05
-3.29193e-06
4.92779e-05
-3.09988e-06
5.15705e-05
-2.29262e-06
5.21302e-05
-5.59681e-07
5.05569e-05
1.57325e-06
4.77999e-05
2.75702e-06
4.50245e-05
2.77538e-06
4.3115e-05
1.90949e-06
4.26722e-05
4.42803e-07
4.39532e-05
-1.28094e-06
4.62546e-05
-2.3014e-06
4.57623e-05
4.92238e-07
4.23144e-05
3.44796e-06
3.65823e-05
5.73211e-06
3.06722e-05
5.91006e-06
2.56816e-05
4.99063e-06
2.10659e-05
4.61577e-06
1.63716e-05
4.69426e-06
1.15339e-05
4.83772e-06
6.67252e-06
4.86134e-06
2.33323e-06
4.33925e-06
2.33325e-06
7.84042e-07
-1.03233e-06
2.12977e-06
-2.56974e-06
3.60997e-06
-3.108e-06
5.11114e-06
-3.19576e-06
6.59139e-06
-3.14708e-06
8.03987e-06
-3.06786e-06
9.4592e-06
-2.99321e-06
1.08575e-05
-2.93631e-06
1.22447e-05
-2.90154e-06
1.36312e-05
-2.88999e-06
1.50274e-05
-2.9013e-06
1.64435e-05
-2.93514e-06
1.78903e-05
-2.99191e-06
1.93793e-05
-3.07284e-06
2.09232e-05
-3.18025e-06
2.25369e-05
-3.31801e-06
2.42383e-05
-3.49207e-06
2.60492e-05
-3.71058e-06
2.79965e-05
-3.98418e-06
3.0112e-05
-4.32504e-06
3.24301e-05
-4.74127e-06
3.49801e-05
-5.22683e-06
3.77686e-05
-5.74063e-06
4.07483e-05
-6.17249e-06
4.37747e-05
-6.31831e-06
4.65379e-05
-5.86304e-06
4.86441e-05
-4.39882e-06
4.98922e-05
-1.80781e-06
5.01595e-05
1.30595e-06
4.92817e-05
3.63485e-06
4.78125e-05
4.24456e-06
4.65688e-05
3.15315e-06
4.5805e-05
1.20662e-06
4.54966e-05
-9.72562e-07
4.63404e-05
-3.1452e-06
4.80598e-05
-1.22712e-06
4.67741e-05
4.73367e-06
4.14486e-05
1.10576e-05
3.48226e-05
1.25363e-05
2.88238e-05
1.09894e-05
2.36135e-05
9.82617e-06
1.86674e-05
9.64036e-06
1.36439e-05
9.8611e-06
8.5356e-06
9.96987e-06
3.73521e-06
9.13936e-06
6.06864e-06
1.16352e-06
-2.19585e-06
2.53075e-06
-3.93697e-06
3.8898e-06
-4.46705e-06
5.23556e-06
-4.54153e-06
6.56088e-06
-4.47241e-06
7.86449e-06
-4.37146e-06
9.15063e-06
-4.27935e-06
1.04265e-05
-4.21222e-06
1.17005e-05
-4.17555e-06
1.29814e-05
-4.1708e-06
1.42778e-05
-4.19772e-06
1.55989e-05
-4.25623e-06
1.69542e-05
-4.34726e-06
1.83543e-05
-4.47296e-06
1.98112e-05
-4.63714e-06
2.13389e-05
-4.84572e-06
2.29543e-05
-5.10744e-06
2.46776e-05
-5.43393e-06
2.65331e-05
-5.83966e-06
2.85479e-05
-6.33982e-06
3.07489e-05
-6.94224e-06
3.31545e-05
-7.6325e-06
3.57594e-05
-8.34544e-06
3.85078e-05
-8.9209e-06
4.12582e-05
-9.06877e-06
4.37357e-05
-8.34056e-06
4.55621e-05
-6.22519e-06
4.64624e-05
-2.70808e-06
4.65373e-05
1.23103e-06
4.61284e-05
4.04374e-06
4.57061e-05
4.66682e-06
4.56253e-05
3.23395e-06
4.57297e-05
1.10231e-06
4.48898e-05
-1.32672e-07
4.33416e-05
-1.59704e-06
4.13703e-05
7.44162e-07
3.8564e-05
7.54001e-06
3.51553e-05
1.44663e-05
3.11303e-05
1.65613e-05
2.68036e-05
1.5316e-05
2.24713e-05
1.41584e-05
1.81063e-05
1.40053e-05
1.35991e-05
1.43683e-05
8.95762e-06
1.46115e-05
4.35379e-06
1.37432e-05
1.04225e-05
1.38755e-06
-3.5834e-06
2.77028e-06
-5.3197e-06
4.04313e-06
-5.7399e-06
5.26935e-06
-5.76774e-06
6.47002e-06
-5.67308e-06
7.65364e-06
-5.55508e-06
8.82718e-06
-5.45289e-06
9.99795e-06
-5.38299e-06
1.11735e-05
-5.35112e-06
1.23615e-05
-5.35882e-06
1.35698e-05
-5.40596e-06
1.48063e-05
-5.49278e-06
1.60799e-05
-5.6208e-06
1.74001e-05
-5.79319e-06
1.87782e-05
-6.01518e-06
2.02271e-05
-6.29462e-06
2.17623e-05
-6.64267e-06
2.34021e-05
-7.07378e-06
2.51675e-05
-7.60504e-06
2.70807e-05
-8.253e-06
2.91617e-05
-9.02328e-06
3.1421e-05
-9.89175e-06
3.3846e-05
-1.07705e-05
3.63811e-05
-1.1456e-05
3.88998e-05
-1.15874e-05
4.11686e-05
-1.06093e-05
4.2849e-05
-7.90559e-06
4.36862e-05
-3.54534e-06
4.38691e-05
1.04812e-06
4.38846e-05
4.02822e-06
4.40715e-05
4.47996e-06
4.44312e-05
2.87425e-06
4.44965e-05
1.03698e-06
4.35042e-05
8.59606e-07
4.07166e-05
1.19063e-06
3.6908e-05
4.5527e-06
3.31484e-05
1.12997e-05
3.02633e-05
1.73514e-05
2.75658e-05
1.92587e-05
2.44203e-05
1.84614e-05
2.08896e-05
1.76891e-05
1.71222e-05
1.77728e-05
1.31421e-05
1.83484e-05
8.95743e-06
1.87962e-05
4.58548e-06
1.81152e-05
1.50079e-05
1.50174e-06
-5.08514e-06
2.88754e-06
-6.7055e-06
4.09864e-06
-6.95101e-06
5.23505e-06
-6.90415e-06
6.33741e-06
-6.77544e-06
7.42282e-06
-6.64049e-06
8.50156e-06
-6.53162e-06
9.58186e-06
-6.4633e-06
1.06712e-05
-6.4405e-06
1.17768e-05
-6.46441e-06
1.29058e-05
-6.53492e-06
1.40655e-05
-6.65253e-06
1.5264e-05
-6.8193e-06
1.65102e-05
-7.03935e-06
1.78142e-05
-7.31922e-06
1.9188e-05
-7.66842e-06
2.06454e-05
-8.10006e-06
2.22023e-05
-8.63065e-06
2.38761e-05
-9.27886e-06
2.56843e-05
-1.00612e-05
2.7641e-05
-1.098e-05
2.97507e-05
-1.20014e-05
3.19985e-05
-1.30183e-05
3.43358e-05
-1.37932e-05
3.66613e-05
-1.39129e-05
3.87888e-05
-1.27368e-05
4.04248e-05
-9.54158e-06
4.13445e-05
-4.46512e-06
4.17924e-05
6.00299e-07
4.22251e-05
3.59553e-06
4.27594e-05
3.94563e-06
4.30932e-05
2.54039e-06
4.25853e-05
1.54488e-06
4.07673e-05
2.67764e-06
3.71024e-05
4.85556e-06
3.26534e-05
9.00169e-06
2.90245e-05
1.49287e-05
2.67198e-05
1.96561e-05
2.47381e-05
2.12405e-05
2.22858e-05
2.09137e-05
1.935e-05
2.0625e-05
1.60972e-05
2.10257e-05
1.25811e-05
2.18645e-05
8.78705e-06
2.25902e-05
4.63703e-06
2.22652e-05
1.96449e-05
1.54561e-06
-6.63075e-06
2.91746e-06
-8.07735e-06
4.0813e-06
-8.11485e-06
5.1508e-06
-7.97365e-06
6.17725e-06
-7.80189e-06
7.18401e-06
-7.64725e-06
8.18447e-06
-7.53208e-06
9.18818e-06
-7.46702e-06
1.02031e-05
-7.45537e-06
1.12362e-05
-7.49753e-06
1.22944e-05
-7.59315e-06
1.33847e-05
-7.74284e-06
1.45145e-05
-7.94913e-06
1.56921e-05
-8.21689e-06
1.69266e-05
-8.55377e-06
1.82288e-05
-8.97058e-06
1.96106e-05
-9.48187e-06
2.10854e-05
-1.01055e-05
2.26671e-05
-1.08606e-05
2.43687e-05
-1.17627e-05
2.61989e-05
-1.28102e-05
2.81582e-05
-1.39608e-05
3.02322e-05
-1.50923e-05
3.2384e-05
-1.5945e-05
3.45436e-05
-1.60724e-05
3.65778e-05
-1.47711e-05
3.82426e-05
-1.12064e-05
3.93318e-05
-5.55429e-06
4.00764e-05
-1.44271e-07
4.07907e-05
2.88121e-06
4.13806e-05
3.35577e-06
4.13454e-05
2.57559e-06
4.00529e-05
2.83736e-06
3.7264e-05
5.46653e-06
3.31928e-05
8.92683e-06
2.90135e-05
1.3181e-05
2.598e-05
1.79622e-05
2.41202e-05
2.15158e-05
2.24956e-05
2.28652e-05
2.04549e-05
2.29544e-05
1.79619e-05
2.31181e-05
1.51395e-05
2.3848e-05
1.20214e-05
2.49826e-05
8.55831e-06
2.60534e-05
4.61321e-06
2.62103e-05
2.4258e-05
1.54301e-06
-8.17376e-06
2.88685e-06
-9.42119e-06
4.01292e-06
-9.24091e-06
5.0333e-06
-8.99403e-06
6.00266e-06
-8.77126e-06
6.9481e-06
-8.59269e-06
7.8855e-06
-8.46948e-06
8.82578e-06
-8.4073e-06
9.77751e-06
-8.40709e-06
1.0748e-05
-8.46803e-06
1.17441e-05
-8.58924e-06
1.27726e-05
-8.77128e-06
1.38404e-05
-9.01693e-06
1.49551e-05
-9.33163e-06
1.61251e-05
-9.72383e-06
1.73599e-05
-1.02053e-05
1.86694e-05
-1.07914e-05
2.00645e-05
-1.15006e-05
2.15557e-05
-1.23518e-05
2.31516e-05
-1.33585e-05
2.48564e-05
-1.45151e-05
2.66676e-05
-1.57719e-05
2.85725e-05
-1.69973e-05
3.05476e-05
-1.79201e-05
3.25556e-05
-1.80805e-05
3.45209e-05
-1.67364e-05
3.62616e-05
-1.2947e-05
3.75657e-05
-6.85843e-06
3.85406e-05
-1.11913e-06
3.93108e-05
2.11098e-06
3.97192e-05
2.94736e-06
3.92133e-05
3.08149e-06
3.70613e-05
4.98936e-06
3.36607e-05
8.86709e-06
2.97273e-05
1.28604e-05
2.61952e-05
1.6713e-05
2.37261e-05
2.04314e-05
2.21306e-05
2.31114e-05
2.06822e-05
2.43136e-05
1.89076e-05
2.4729e-05
1.67566e-05
2.52691e-05
1.42938e-05
2.63107e-05
1.15152e-05
2.77612e-05
8.33241e-06
2.92363e-05
4.56803e-06
2.99747e-05
2.88261e-05
1.50901e-06
-9.68277e-06
2.81595e-06
-1.07281e-05
3.91176e-06
-1.03367e-05
4.89731e-06
-9.97959e-06
5.82547e-06
-9.69941e-06
6.72482e-06
-9.49204e-06
7.61302e-06
-9.35768e-06
8.50222e-06
-9.2965e-06
9.40174e-06
-9.30662e-06
1.03193e-05
-9.38562e-06
1.1262e-05
-9.53187e-06
1.22363e-05
-9.74562e-06
1.32491e-05
-1.00297e-05
1.43073e-05
-1.03899e-05
1.54186e-05
-1.08351e-05
1.6591e-05
-1.13776e-05
1.78328e-05
-1.20332e-05
1.91523e-05
-1.28202e-05
2.05568e-05
-1.37563e-05
2.20508e-05
-1.48525e-05
2.36345e-05
-1.60988e-05
2.53028e-05
-1.74402e-05
2.70449e-05
-1.87394e-05
2.8849e-05
-1.97242e-05
3.07077e-05
-1.99391e-05
3.26036e-05
-1.86322e-05
3.44404e-05
-1.47839e-05
3.59913e-05
-8.40932e-06
3.71103e-05
-2.2382e-06
3.77977e-05
1.42364e-06
3.81591e-05
2.58598e-06
3.69846e-05
4.25597e-06
3.41176e-05
7.85631e-06
3.05276e-05
1.24571e-05
2.70052e-05
1.63827e-05
2.40723e-05
1.96459e-05
2.19977e-05
2.2506e-05
2.05456e-05
2.45635e-05
1.91975e-05
2.56616e-05
1.76169e-05
2.63096e-05
1.57409e-05
2.71451e-05
1.35813e-05
2.84703e-05
1.10937e-05
3.02488e-05
8.14898e-06
3.2181e-05
4.53686e-06
3.35869e-05
3.33631e-05
1.45413e-06
-1.11369e-05
2.72071e-06
-1.19947e-05
3.79326e-06
-1.14093e-05
4.75583e-06
-1.09422e-05
5.65617e-06
-1.05998e-05
6.52276e-06
-1.03586e-05
7.37426e-06
-1.02092e-05
8.22383e-06
-1.01461e-05
9.08156e-06
-1.01643e-05
9.95569e-06
-1.02597e-05
1.08535e-05
-1.04296e-05
1.17816e-05
-1.06738e-05
1.27466e-05
-1.09947e-05
1.37552e-05
-1.13984e-05
1.4814e-05
-1.18939e-05
1.593e-05
-1.24936e-05
1.71099e-05
-1.32131e-05
1.83595e-05
-1.40698e-05
1.9683e-05
-1.50798e-05
2.10814e-05
-1.62508e-05
2.25513e-05
-1.75687e-05
2.40849e-05
-1.89737e-05
2.56723e-05
-2.03269e-05
2.73103e-05
-2.13622e-05
2.9013e-05
-2.16419e-05
3.08196e-05
-2.04388e-05
3.27516e-05
-1.67159e-05
3.46422e-05
-1.02999e-05
3.59691e-05
-3.5651e-06
3.69432e-05
4.49564e-07
3.69131e-05
2.61604e-06
3.49286e-05
6.24048e-06
3.15791e-05
1.12058e-05
2.80637e-05
1.59724e-05
2.49516e-05
1.94949e-05
2.24505e-05
2.21469e-05
2.06223e-05
2.43343e-05
1.92551e-05
2.59308e-05
1.79822e-05
2.69345e-05
1.65587e-05
2.77331e-05
1.49119e-05
2.8792e-05
1.30124e-05
3.03696e-05
1.07787e-05
3.24826e-05
8.03941e-06
3.49202e-05
4.55045e-06
3.7076e-05
3.79135e-05
1.38644e-06
-1.25233e-05
2.61431e-06
-1.32226e-05
3.67064e-06
-1.24656e-05
4.6202e-06
-1.18917e-05
5.50406e-06
-1.14836e-05
6.34946e-06
-1.1204e-05
7.17544e-06
-1.10352e-05
7.99592e-06
-1.09666e-05
8.82166e-06
-1.09901e-05
9.66143e-06
-1.10995e-05
1.05228e-05
-1.1291e-05
1.14127e-05
-1.15636e-05
1.23375e-05
-1.19195e-05
1.33034e-05
-1.23644e-05
1.43167e-05
-1.29072e-05
1.5383e-05
-1.356e-05
1.65076e-05
-1.43377e-05
1.76942e-05
-1.52564e-05
1.89442e-05
-1.63298e-05
2.02554e-05
-1.7562e-05
2.16211e-05
-1.89345e-05
2.3031e-05
-2.03836e-05
2.44748e-05
-2.17707e-05
2.59532e-05
-2.28406e-05
2.74916e-05
-2.31803e-05
2.91742e-05
-2.21214e-05
3.11782e-05
-1.87199e-05
3.3594e-05
-1.27157e-05
3.56768e-05
-5.64786e-06
3.67499e-05
-6.23647e-07
3.58988e-05
3.46721e-06
3.31108e-05
9.02841e-06
2.95183e-05
1.47983e-05
2.61801e-05
1.93105e-05
2.33915e-05
2.22836e-05
2.11761e-05
2.43623e-05
1.95067e-05
2.60036e-05
1.82028e-05
2.72347e-05
1.69998e-05
2.81376e-05
1.5713e-05
2.90198e-05
1.42641e-05
3.02409e-05
1.2594e-05
3.20397e-05
1.05889e-05
3.44878e-05
8.03433e-06
3.74747e-05
4.64265e-06
4.04677e-05
4.25561e-05
1.31315e-06
-1.38365e-05
2.50813e-06
-1.44175e-05
3.55534e-06
-1.35128e-05
4.50034e-06
-1.28367e-05
5.37728e-06
-1.23606e-05
6.21147e-06
-1.20382e-05
7.02188e-06
-1.18456e-05
7.82288e-06
-1.17676e-05
8.6258e-06
-1.1793e-05
9.43991e-06
-1.19136e-05
1.02732e-05
-1.21243e-05
1.11326e-05
-1.2423e-05
1.20247e-05
-1.28116e-05
1.29554e-05
-1.32951e-05
1.39302e-05
-1.3882e-05
1.49541e-05
-1.45838e-05
1.60308e-05
-1.54143e-05
1.71622e-05
-1.63878e-05
1.83473e-05
-1.7515e-05
1.95813e-05
-1.8796e-05
2.08545e-05
-2.02077e-05
2.21542e-05
-2.16833e-05
2.34686e-05
-2.30851e-05
2.47989e-05
-2.41708e-05
2.6174e-05
-2.45554e-05
2.77003e-05
-2.36477e-05
2.96648e-05
-2.06844e-05
3.23959e-05
-1.54468e-05
3.50657e-05
-8.31763e-06
3.61681e-05
-1.72609e-06
3.47094e-05
4.9259e-06
3.14565e-05
1.22813e-05
2.7855e-05
1.83998e-05
2.47259e-05
2.24396e-05
2.21773e-05
2.48322e-05
2.01592e-05
2.63803e-05
1.86041e-05
2.75588e-05
1.73588e-05
2.84801e-05
1.62271e-05
2.92693e-05
1.50651e-05
3.01818e-05
1.37927e-05
3.15133e-05
1.23322e-05
3.35003e-05
1.05439e-05
3.62761e-05
8.16924e-06
3.98495e-05
4.85804e-06
4.3779e-05
4.74141e-05
1.24188e-06
-1.50784e-05
2.41242e-06
-1.55881e-05
3.45721e-06
-1.45576e-05
4.40474e-06
-1.37843e-05
5.28276e-06
-1.32386e-05
6.11436e-06
-1.28698e-05
6.91802e-06
-1.26492e-05
7.70828e-06
-1.25578e-05
8.4969e-06
-1.25816e-05
9.2936e-06
-1.27103e-05
1.01067e-05
-1.29374e-05
1.09434e-05
-1.32598e-05
1.18103e-05
-1.36785e-05
1.27132e-05
-1.41979e-05
1.3657e-05
-1.48258e-05
1.46459e-05
-1.55727e-05
1.56825e-05
-1.64509e-05
1.67671e-05
-1.74724e-05
1.78968e-05
-1.86447e-05
1.90644e-05
-1.99636e-05
2.0258e-05
-2.14013e-05
2.14627e-05
-2.2888e-05
2.2665e-05
-2.42873e-05
2.38642e-05
-2.53701e-05
2.50893e-05
-2.57805e-05
2.64451e-05
-2.50036e-05
2.82043e-05
-2.24436e-05
3.06603e-05
-1.79028e-05
3.36287e-05
-1.1286e-05
3.48615e-05
-2.95889e-06
3.32187e-05
6.56873e-06
2.99086e-05
1.55913e-05
2.64829e-05
2.18256e-05
2.3573e-05
2.53495e-05
2.12203e-05
2.71848e-05
1.93537e-05
2.82469e-05
1.78925e-05
2.90201e-05
1.67077e-05
2.96649e-05
1.56501e-05
3.03269e-05
1.4605e-05
3.12268e-05
1.34955e-05
3.26229e-05
1.22351e-05
3.47607e-05
1.06669e-05
3.78443e-05
8.49021e-06
4.20262e-05
5.26215e-06
4.7007e-05
5.26764e-05
1.18099e-06
-1.62594e-05
2.33632e-06
-1.67434e-05
3.38447e-06
-1.56057e-05
4.34033e-06
-1.47401e-05
5.22609e-06
-1.41243e-05
6.06249e-06
-1.37062e-05
6.86717e-06
-1.34539e-05
7.65463e-06
-1.33453e-05
8.43686e-06
-1.33638e-05
9.22393e-06
-1.34974e-05
1.00245e-05
-1.37379e-05
1.08461e-05
-1.40814e-05
1.16952e-05
-1.45276e-05
1.25775e-05
-1.50803e-05
1.34977e-05
-1.5746e-05
1.44592e-05
-1.65342e-05
1.54636e-05
-1.74554e-05
1.65101e-05
-1.85189e-05
1.75941e-05
-1.97287e-05
1.87066e-05
-2.10762e-05
1.98342e-05
-2.25289e-05
2.096e-05
-2.40138e-05
2.20691e-05
-2.53964e-05
2.31585e-05
-2.64595e-05
2.42536e-05
-2.68755e-05
2.54458e-05
-2.61958e-05
2.69545e-05
-2.39523e-05
2.9019e-05
-1.99673e-05
3.19701e-05
-1.42371e-05
3.32111e-05
-4.19998e-06
3.15888e-05
8.19097e-06
2.84791e-05
1.8701e-05
2.53302e-05
2.49745e-05
2.26527e-05
2.80269e-05
2.04771e-05
2.93604e-05
1.87399e-05
2.99841e-05
1.73642e-05
3.03957e-05
1.62431e-05
3.0786e-05
1.52614e-05
3.13085e-05
1.43278e-05
3.21603e-05
1.33731e-05
3.35775e-05
1.2313e-05
3.58208e-05
1.09856e-05
3.91717e-05
9.06054e-06
4.39513e-05
5.95907e-06
5.01085e-05
5.86354e-05
1.13877e-06
-1.73981e-05
2.28752e-06
-1.78922e-05
3.34367e-06
-1.66619e-05
4.31258e-06
-1.5709e-05
5.21164e-06
-1.50234e-05
6.05918e-06
-1.45538e-05
6.87176e-06
-1.42665e-05
7.66359e-06
-1.41371e-05
8.44672e-06
-1.4147e-05
9.23148e-06
-1.42822e-05
1.00268e-05
-1.45332e-05
1.08404e-05
-1.48949e-05
1.16789e-05
-1.53661e-05
1.25478e-05
-1.59492e-05
1.34517e-05
-1.66498e-05
1.43932e-05
-1.74758e-05
1.53735e-05
-1.84356e-05
1.63904e-05
-1.95358e-05
1.74383e-05
-2.07766e-05
1.8507e-05
-2.21449e-05
1.95818e-05
-2.36037e-05
2.0645e-05
-2.50771e-05
2.16804e-05
-2.64318e-05
2.26824e-05
-2.74615e-05
2.36703e-05
-2.78634e-05
2.47194e-05
-2.7245e-05
2.60293e-05
-2.52622e-05
2.78503e-05
-2.17883e-05
3.05321e-05
-1.69188e-05
3.15634e-05
-5.23134e-06
2.99904e-05
9.76399e-06
2.71918e-05
2.14996e-05
2.43743e-05
2.7792e-05
2.19399e-05
3.04612e-05
1.99335e-05
3.13668e-05
1.83149e-05
3.16026e-05
1.7021e-05
3.16896e-05
1.59655e-05
3.18415e-05
1.506e-05
3.22141e-05
1.42334e-05
3.29868e-05
1.343e-05
3.43809e-05
1.2579e-05
3.66717e-05
1.15328e-05
4.02179e-05
9.9633e-06
4.55207e-05
7.09614e-06
5.29757e-05
6.57315e-05
1.12188e-06
-1.852e-05
2.27139e-06
-1.90417e-05
3.33949e-06
-1.773e-05
4.32561e-06
-1.66952e-05
5.2429e-06
-1.59407e-05
6.10727e-06
-1.54181e-05
6.93403e-06
-1.50933e-05
7.73688e-06
-1.494e-05
8.52779e-06
-1.49379e-05
9.31721e-06
-1.50716e-05
1.01143e-05
-1.53303e-05
1.09269e-05
-1.57075e-05
1.17617e-05
-1.6201e-05
1.26243e-05
-1.68119e-05
1.35189e-05
-1.75444e-05
1.44479e-05
-1.84048e-05
1.54116e-05
-1.93993e-05
1.64072e-05
-2.05315e-05
1.74283e-05
-2.17977e-05
1.8464e-05
-2.31806e-05
1.94989e-05
-2.46385e-05
2.05149e-05
-2.6093e-05
2.14953e-05
-2.74122e-05
2.24326e-05
-2.83988e-05
2.33384e-05
-2.87692e-05
2.42692e-05
-2.81758e-05
2.54159e-05
-2.64089e-05
2.70415e-05
-2.34139e-05
2.92714e-05
-1.91487e-05
3.00051e-05
-5.96508e-06
2.85163e-05
1.12529e-05
2.60878e-05
2.3928e-05
2.36271e-05
3.02528e-05
2.14389e-05
3.26494e-05
1.95959e-05
3.32098e-05
1.80883e-05
3.31103e-05
1.68721e-05
3.29057e-05
1.58817e-05
3.28319e-05
1.50508e-05
3.3045e-05
1.43276e-05
3.371e-05
1.36748e-05
3.50337e-05
1.30487e-05
3.72978e-05
1.23444e-05
4.09223e-05
1.13131e-05
4.6552e-05
8.95383e-06
5.5335e-05
7.46854e-05
1.12794e-06
-1.9648e-05
2.28657e-06
-2.02003e-05
3.37066e-06
-1.88141e-05
4.37744e-06
-1.77019e-05
5.31701e-06
-1.68802e-05
6.20306e-06
-1.63042e-05
7.04953e-06
-1.59397e-05
7.86939e-06
-1.57598e-05
8.67437e-06
-1.57429e-05
9.4749e-06
-1.58721e-05
1.02802e-05
-1.61356e-05
1.10983e-05
-1.65256e-05
1.1936e-05
-1.70387e-05
1.27988e-05
-1.76746e-05
1.36906e-05
-1.84362e-05
1.46136e-05
-1.93278e-05
1.55676e-05
-2.03533e-05
1.65494e-05
-2.15133e-05
1.7552e-05
-2.28004e-05
1.85642e-05
-2.41928e-05
1.95706e-05
-2.56449e-05
2.05532e-05
-2.70757e-05
2.14958e-05
-2.83547e-05
2.23899e-05
-2.9293e-05
2.32373e-05
-2.96165e-05
2.408e-05
-2.90185e-05
2.50852e-05
-2.74141e-05
2.64447e-05
-2.47734e-05
2.81239e-05
-2.08279e-05
2.85322e-05
-6.37343e-06
2.72322e-05
1.25529e-05
2.52158e-05
2.59445e-05
2.31116e-05
3.23569e-05
2.11643e-05
3.45967e-05
1.94762e-05
3.48979e-05
1.80702e-05
3.45162e-05
1.69252e-05
3.40508e-05
1.59958e-05
3.37612e-05
1.52358e-05
3.3805e-05
1.46125e-05
3.43332e-05
1.41119e-05
3.55343e-05
1.37312e-05
3.76786e-05
1.34477e-05
4.12057e-05
1.31572e-05
4.68426e-05
1.1294e-05
5.71983e-05
8.59795e-05
3.91232e-07
-3.91232e-07
1.37546e-06
-9.8425e-07
2.51604e-06
-1.1406e-06
3.58154e-06
-1.06552e-06
4.47489e-06
-8.93355e-07
5.17907e-06
-7.0422e-07
5.70283e-06
-5.23744e-07
6.0538e-06
-3.51021e-07
6.26889e-06
-2.15105e-07
6.37461e-06
-1.05726e-07
6.39248e-06
-1.79438e-08
6.34824e-06
4.42623e-08
6.24188e-06
1.063e-07
6.08762e-06
1.54234e-07
5.90938e-06
1.78268e-07
5.71221e-06
1.97091e-07
5.49849e-06
2.13765e-07
5.27143e-06
2.27037e-07
5.03396e-06
2.37441e-07
4.78872e-06
2.45305e-07
4.53711e-06
2.51495e-07
4.28091e-06
2.56281e-07
4.02092e-06
2.59951e-07
3.75805e-06
2.62878e-07
3.49312e-06
2.64982e-07
3.22631e-06
2.66751e-07
2.95776e-06
2.68585e-07
2.68709e-06
2.70694e-07
2.41325e-06
2.73752e-07
2.13556e-06
2.77779e-07
1.85197e-06
2.83436e-07
1.56129e-06
2.90785e-07
1.26167e-06
2.99551e-07
9.53403e-07
3.08306e-07
6.40625e-07
3.12761e-07
3.3896e-07
3.01733e-07
9.73065e-08
2.41568e-07
9.74503e-08
6.24563e-07
-1.01582e-06
1.64423e-06
-2.00395e-06
2.71973e-06
-2.21613e-06
3.70414e-06
-2.04996e-06
4.52899e-06
-1.7182e-06
5.17474e-06
-1.35005e-06
5.65026e-06
-9.99268e-07
5.97769e-06
-6.78489e-07
6.17716e-06
-4.14659e-07
6.27448e-06
-2.03029e-07
6.29165e-06
-3.52305e-08
6.24297e-06
9.29472e-08
6.14367e-06
2.05576e-07
6.00415e-06
2.9367e-07
5.8325e-06
3.49982e-07
5.6386e-06
3.90927e-07
5.42818e-06
4.242e-07
5.20479e-06
4.50458e-07
4.97124e-06
4.70839e-07
4.73025e-06
4.86429e-07
4.48328e-06
4.98343e-07
4.23217e-06
5.07461e-07
3.97784e-06
5.14299e-07
3.7211e-06
5.1956e-07
3.46262e-06
5.23541e-07
3.20247e-06
5.26874e-07
2.94069e-06
5.30324e-07
2.67705e-06
5.34411e-07
2.41063e-06
5.3997e-07
2.14104e-06
5.47528e-07
1.86663e-06
5.57688e-07
1.58663e-06
5.7088e-07
1.2997e-06
5.86433e-07
1.00619e-06
6.01893e-07
7.09106e-07
6.09769e-07
4.19367e-07
5.91628e-07
1.64023e-07
4.96634e-07
2.61591e-07
7.99146e-07
-1.815e-06
1.83171e-06
-3.03654e-06
2.84354e-06
-3.22797e-06
3.74262e-06
-2.94908e-06
4.48333e-06
-2.4589e-06
5.05582e-06
-1.9226e-06
5.4727e-06
-1.41615e-06
5.75712e-06
-9.62929e-07
5.9284e-06
-5.85998e-07
6.00746e-06
-2.82069e-07
6.01279e-06
-4.06265e-08
5.95738e-06
1.48356e-07
5.85745e-06
3.05506e-07
5.72306e-06
4.28011e-07
5.55937e-06
5.13742e-07
5.37348e-06
5.76745e-07
5.17164e-06
6.26006e-07
4.95788e-06
6.64259e-07
4.73495e-06
6.93672e-07
4.50543e-06
7.16055e-07
4.27077e-06
7.32919e-07
4.03262e-06
7.45633e-07
3.79187e-06
7.5507e-07
3.54919e-06
7.622e-07
3.30511e-06
7.67661e-07
3.05971e-06
7.72261e-07
2.81297e-06
7.76998e-07
2.56485e-06
7.82618e-07
2.31461e-06
7.9006e-07
2.06213e-06
8.00123e-07
1.80622e-06
8.13481e-07
1.54648e-06
8.30692e-07
1.28197e-06
8.50917e-07
1.01289e-06
8.71038e-07
7.40796e-07
8.81788e-07
4.715e-07
8.61073e-07
2.15758e-07
7.52175e-07
4.77452e-07
8.94494e-07
-2.70951e-06
1.94614e-06
-4.0882e-06
2.92253e-06
-4.20438e-06
3.75683e-06
-3.78342e-06
4.42383e-06
-3.1259e-06
4.92689e-06
-2.4257e-06
5.28522e-06
-1.7745e-06
5.52362e-06
-1.20134e-06
5.66205e-06
-7.24483e-07
5.71893e-06
-3.38922e-07
5.71008e-06
-3.1823e-08
5.64781e-06
2.10626e-07
5.54631e-06
4.07014e-07
5.41458e-06
5.59686e-07
5.25708e-06
6.71267e-07
5.07932e-06
7.5448e-07
4.88681e-06
8.18519e-07
4.68349e-06
8.67638e-07
4.47202e-06
9.05045e-07
4.25484e-06
9.33295e-07
4.03332e-06
9.54374e-07
3.8089e-06
9.70052e-07
3.58245e-06
9.81553e-07
3.3545e-06
9.90103e-07
3.12553e-06
9.9665e-07
2.89562e-06
1.00217e-06
2.66477e-06
1.00779e-06
2.43307e-06
1.0144e-06
2.19996e-06
1.02304e-06
1.96552e-06
1.03465e-06
1.72892e-06
1.05001e-06
1.48993e-06
1.06974e-06
1.24781e-06
1.09301e-06
1.00239e-06
1.11651e-06
7.53642e-07
1.13047e-06
5.02827e-07
1.11203e-06
2.49349e-07
1.0055e-06
7.26894e-07
9.23918e-07
-3.63345e-06
2.0048e-06
-5.16911e-06
2.97587e-06
-5.17546e-06
3.76866e-06
-4.57626e-06
4.37555e-06
-3.73278e-06
4.81591e-06
-2.86609e-06
5.1182e-06
-2.07681e-06
5.31078e-06
-1.39392e-06
5.41487e-06
-8.28611e-07
5.44766e-06
-3.71698e-07
5.42315e-06
-7.34978e-09
5.35263e-06
2.8113e-07
5.24799e-06
5.11658e-07
5.11698e-06
6.90665e-07
4.96372e-06
8.24574e-07
4.79273e-06
9.25475e-07
4.60864e-06
1.00258e-06
4.41506e-06
1.06125e-06
4.21443e-06
1.1056e-06
4.00895e-06
1.13883e-06
3.79991e-06
1.16337e-06
3.58856e-06
1.18139e-06
3.37569e-06
1.19444e-06
3.16175e-06
1.20399e-06
2.94717e-06
1.21124e-06
2.73205e-06
1.21729e-06
2.51642e-06
1.22336e-06
2.30044e-06
1.23045e-06
2.08373e-06
1.23964e-06
1.86645e-06
1.252e-06
1.64802e-06
1.26838e-06
1.42828e-06
1.28953e-06
1.20649e-06
1.31479e-06
9.81997e-07
1.34106e-06
7.53341e-07
1.35906e-06
5.18326e-07
1.34718e-06
2.69086e-07
1.2546e-06
9.96064e-07
8.95884e-07
-4.52936e-06
2.02302e-06
-6.29627e-06
3.02002e-06
-6.17248e-06
3.79303e-06
-5.34931e-06
4.35175e-06
-4.29151e-06
4.73546e-06
-3.24983e-06
4.98443e-06
-2.32579e-06
5.13206e-06
-1.54155e-06
5.20131e-06
-8.9791e-07
5.20891e-06
-3.79285e-07
5.16748e-06
3.40539e-08
5.08713e-06
3.61469e-07
4.97767e-06
6.21136e-07
4.8456e-06
8.22712e-07
4.69471e-06
9.75492e-07
4.52879e-06
1.09138e-06
4.35171e-06
1.17963e-06
4.16657e-06
1.24644e-06
3.97553e-06
1.29659e-06
3.78053e-06
1.33386e-06
3.58274e-06
1.36112e-06
3.38322e-06
1.38088e-06
3.18267e-06
1.395e-06
2.98148e-06
1.40514e-06
2.78002e-06
1.4127e-06
2.57843e-06
1.4189e-06
2.37673e-06
1.425e-06
2.17514e-06
1.43211e-06
1.97338e-06
1.44132e-06
1.77165e-06
1.4538e-06
1.5695e-06
1.4705e-06
1.36673e-06
1.49233e-06
1.16252e-06
1.51898e-06
9.55757e-07
1.54789e-06
7.43834e-07
1.57093e-06
5.22173e-07
1.56896e-06
2.78619e-07
1.49805e-06
1.27476e-06
8.12489e-07
-5.34187e-06
2.014e-06
-7.4978e-06
3.07153e-06
-7.23002e-06
3.84374e-06
-6.12155e-06
4.36289e-06
-4.81066e-06
4.6938e-06
-3.58077e-06
4.89115e-06
-2.52315e-06
4.9944e-06
-1.64479e-06
5.02851e-06
-9.32056e-07
5.01002e-06
-3.60775e-07
4.95046e-06
9.36059e-08
4.85871e-06
4.53202e-07
4.74278e-06
7.37085e-07
4.60797e-06
9.5749e-07
4.45768e-06
1.1258e-06
4.29511e-06
1.25395e-06
4.12338e-06
1.35134e-06
3.94513e-06
1.42474e-06
3.76216e-06
1.4795e-06
3.57614e-06
1.51989e-06
3.38809e-06
1.54914e-06
3.19889e-06
1.57005e-06
3.00915e-06
1.58475e-06
2.81919e-06
1.59506e-06
2.62933e-06
1.60255e-06
2.43972e-06
1.60853e-06
2.25036e-06
1.6143e-06
2.0615e-06
1.62103e-06
1.87291e-06
1.62985e-06
1.68475e-06
1.642e-06
1.49665e-06
1.65857e-06
1.3083e-06
1.68071e-06
1.11875e-06
1.70853e-06
9.26473e-07
1.74022e-06
7.281e-07
1.76925e-06
5.1756e-07
1.77961e-06
2.80513e-07
1.735e-06
1.55533e-06
6.73235e-07
-6.01512e-06
1.99251e-06
-8.81711e-06
3.14926e-06
-8.38678e-06
3.93541e-06
-6.90773e-06
4.41878e-06
-5.29403e-06
4.69762e-06
-3.85962e-06
4.84338e-06
-2.66893e-06
4.90203e-06
-1.70343e-06
4.90042e-06
-9.30471e-07
4.8549e-06
-3.1523e-07
4.77597e-06
1.72534e-07
4.67129e-06
5.57867e-07
4.54727e-06
8.61129e-07
4.40812e-06
1.09662e-06
4.25674e-06
1.27719e-06
4.09579e-06
1.41493e-06
3.92771e-06
1.51939e-06
3.75465e-06
1.59782e-06
3.5781e-06
1.656e-06
3.39942e-06
1.69857e-06
3.21946e-06
1.72908e-06
3.03894e-06
1.75054e-06
2.85836e-06
1.76533e-06
2.67799e-06
1.77541e-06
2.49806e-06
1.78246e-06
2.31874e-06
1.78788e-06
2.13999e-06
1.793e-06
1.96203e-06
1.79904e-06
1.78466e-06
1.80717e-06
1.60796e-06
1.81873e-06
1.43154e-06
1.83498e-06
1.25497e-06
1.85731e-06
1.07715e-06
1.88634e-06
8.96274e-07
1.92115e-06
7.08496e-07
1.95699e-06
5.07001e-07
1.9812e-06
2.76821e-07
1.96509e-06
1.83221e-06
4.81406e-07
-6.49654e-06
1.9811e-06
-1.03168e-05
3.27728e-06
-9.68297e-06
4.0846e-06
-7.71508e-06
4.52935e-06
-5.73878e-06
4.7529e-06
-4.08318e-06
4.84509e-06
-2.76113e-06
4.85792e-06
-1.71625e-06
4.81956e-06
-8.92132e-07
4.74586e-06
-2.4152e-07
4.64623e-06
2.7216e-07
4.52708e-06
6.77012e-07
4.39337e-06
9.9487e-07
4.2483e-06
1.24169e-06
4.09419e-06
1.43132e-06
3.93311e-06
1.57602e-06
3.76695e-06
1.68552e-06
3.59736e-06
1.76743e-06
3.4255e-06
1.82782e-06
3.25244e-06
1.87162e-06
3.07887e-06
1.90264e-06
2.90531e-06
1.92407e-06
2.73218e-06
1.93846e-06
2.55968e-06
1.9479e-06
2.38797e-06
1.95416e-06
2.21716e-06
1.95871e-06
2.04721e-06
1.96291e-06
1.87827e-06
1.96803e-06
1.7101e-06
1.9753e-06
1.54268e-06
1.98618e-06
1.37557e-06
2.00209e-06
1.20819e-06
2.02471e-06
1.03929e-06
2.05521e-06
8.66898e-07
2.09359e-06
6.86978e-07
2.13687e-06
4.92568e-07
2.17569e-06
2.69251e-07
2.18834e-06
2.10151e-06
2.63088e-07
-6.75965e-06
2.02052e-06
-1.20743e-05
3.48847e-06
-1.11509e-05
4.31049e-06
-8.53712e-06
4.70474e-06
-6.13302e-06
4.86525e-06
-4.2437e-06
4.89968e-06
-2.79557e-06
4.86436e-06
-1.68093e-06
4.78768e-06
-8.1547e-07
4.6844e-06
-1.38242e-07
4.56263e-06
3.9393e-07
4.42744e-06
8.12197e-07
4.28243e-06
1.13989e-06
4.12985e-06
1.39427e-06
3.97134e-06
1.58983e-06
3.80843e-06
1.73895e-06
3.64242e-06
1.8515e-06
3.47454e-06
1.93534e-06
3.30561e-06
1.99673e-06
3.13642e-06
2.0408e-06
2.96748e-06
2.07157e-06
2.79915e-06
2.09237e-06
2.63173e-06
2.10587e-06
2.46535e-06
2.11427e-06
2.30008e-06
2.11941e-06
2.13601e-06
2.1228e-06
1.97303e-06
2.12586e-06
1.81118e-06
2.12991e-06
1.65019e-06
2.13627e-06
1.48991e-06
2.14649e-06
1.32977e-06
2.16222e-06
1.16908e-06
2.18542e-06
1.00646e-06
2.21781e-06
8.39839e-07
2.26026e-06
6.65231e-07
2.31144e-06
4.76018e-07
2.36497e-06
2.59215e-07
2.40507e-06
2.36077e-06
1.04193e-07
-6.86385e-06
2.1863e-06
-1.41564e-05
3.82827e-06
-1.27929e-05
4.63476e-06
-9.34363e-06
4.95491e-06
-6.45319e-06
5.03969e-06
-4.32849e-06
5.01006e-06
-2.76596e-06
4.92328e-06
-1.59415e-06
4.80618e-06
-6.98386e-07
4.67167e-06
-3.72663e-09
4.52618e-06
5.3942e-07
4.37332e-06
9.65047e-07
4.21538e-06
1.29784e-06
4.05364e-06
1.556e-06
3.88905e-06
1.75441e-06
3.72255e-06
1.90546e-06
3.55493e-06
2.0191e-06
3.38697e-06
2.10331e-06
3.21919e-06
2.16449e-06
3.0521e-06
2.20788e-06
2.88602e-06
2.23765e-06
2.72115e-06
2.25721e-06
2.55769e-06
2.26934e-06
2.39567e-06
2.2763e-06
2.23509e-06
2.27998e-06
2.07596e-06
2.28196e-06
1.91809e-06
2.2837e-06
1.76144e-06
2.2866e-06
1.60565e-06
2.29205e-06
1.45039e-06
2.30176e-06
1.29501e-06
2.31759e-06
1.13864e-06
2.3418e-06
9.79821e-07
2.37661e-06
8.16444e-07
2.42367e-06
6.44771e-07
2.48308e-06
4.58893e-07
2.55091e-06
2.47895e-07
2.61601e-06
2.6087e-06
1.41851e-07
-7.00571e-06
2.61287e-06
-1.66275e-05
4.35677e-06
-1.45368e-05
5.07959e-06
-1.00665e-05
5.28851e-06
-6.66212e-06
5.28028e-06
-4.32024e-06
5.17858e-06
-2.66426e-06
5.03624e-06
-1.45179e-06
4.87623e-06
-5.38379e-07
4.70859e-06
1.63923e-07
4.53769e-06
7.10332e-07
4.36548e-06
1.13725e-06
4.19292e-06
1.47042e-06
4.02033e-06
1.72858e-06
3.84794e-06
1.92679e-06
3.67608e-06
2.07734e-06
3.50505e-06
2.19012e-06
3.33522e-06
2.27316e-06
3.16679e-06
2.3329e-06
3e-06
2.37465e-06
2.83499e-06
2.40265e-06
2.67182e-06
2.42037e-06
2.51055e-06
2.43063e-06
2.35112e-06
2.43573e-06
2.19345e-06
2.43763e-06
2.03746e-06
2.43797e-06
1.8829e-06
2.43825e-06
1.72957e-06
2.43996e-06
1.57702e-06
2.44459e-06
1.42477e-06
2.45402e-06
1.27202e-06
2.47033e-06
1.11775e-06
2.49607e-06
9.60432e-07
2.53391e-06
7.97979e-07
2.58615e-06
6.27017e-07
2.65401e-06
4.42615e-07
2.73535e-06
2.36338e-07
2.82224e-06
2.84508e-06
7.12707e-07
-7.71843e-06
3.52298e-06
-1.94378e-05
5.14275e-06
-1.61566e-05
5.66256e-06
-1.05863e-05
5.71084e-06
-6.71039e-06
5.5893e-06
-4.19871e-06
5.40662e-06
-2.48159e-06
5.20426e-06
-1.24942e-06
4.99864e-06
-3.3276e-07
4.79586e-06
3.66702e-07
4.59777e-06
9.08426e-07
4.40448e-06
1.33053e-06
4.21558e-06
1.65933e-06
4.03039e-06
1.91377e-06
3.84843e-06
2.10875e-06
3.66942e-06
2.25636e-06
3.49317e-06
2.36636e-06
3.31964e-06
2.44669e-06
3.14874e-06
2.50378e-06
2.98046e-06
2.54293e-06
2.81473e-06
2.56838e-06
2.65148e-06
2.58362e-06
2.49061e-06
2.5915e-06
2.33201e-06
2.59435e-06
2.17548e-06
2.59415e-06
2.02086e-06
2.59262e-06
1.86779e-06
2.59132e-06
1.71595e-06
2.59182e-06
1.56476e-06
2.59577e-06
1.41358e-06