/*--------------------------------*- C++ -*----------------------------------*\
  =========                 |
  \\      /  F ield         | OpenFOAM: The Open Source CFD Toolbox
   \\    /   O peration     | Website:  https://openfoam.org
    \\  /    A nd           | Version:  7
     \\/     M anipulation  |
\*---------------------------------------------------------------------------*/
FoamFile
{
    version     2.0;
    format      ascii;
    class       volVectorField;
    location    "0.1";
    object      U;
}
// * * * * * * * * * * * * * * * * * * * * * * * * * * * * * * * * * * * * * //

dimensions      [0 1 -1 0 0 0 0];

internalField   nonuniform List<vector> 
9072
(
(-0.001579 -0.00134805 0)
(0.0164069 -0.00935536 0)
(0.0521121 -0.0130477 0)
(0.0903164 -0.0136436 0)
(0.128639 -0.013313 0)
(0.16617 -0.0127949 0)
(0.202619 -0.0122989 0)
(0.238107 -0.0118909 0)
(0.272904 -0.0115915 0)
(0.307304 -0.0114032 0)
(0.341599 -0.0113196 0)
(0.37607 -0.0113334 0)
(0.410997 -0.0114404 0)
(0.446662 -0.0116392 0)
(0.483364 -0.0119328 0)
(0.521434 -0.0123302 0)
(0.561252 -0.0128491 0)
(0.603283 -0.0135159 0)
(0.648099 -0.0143685 0)
(0.696411 -0.0154641 0)
(0.749085 -0.0168599 0)
(0.807053 -0.0185809 0)
(0.87107 -0.0205471 0)
(0.941139 -0.0224178 0)
(1.01553 -0.0235567 0)
(1.08951 -0.0231625 0)
(1.15588 -0.0184837 0)
(1.19731 -0.00517346 0)
(1.18343 0.0106536 0)
(1.12656 0.0210745 0)
(1.05561 0.0211861 0)
(0.99736 0.0114409 0)
(0.965449 -0.0088907 0)
(0.966278 -0.0417389 0)
(1.00875 -0.0804966 0)
(1.08555 -0.104289 0)
(1.03997 -0.0610418 0)
(0.912981 -0.00210263 0)
(0.764606 0.0416751 0)
(0.640678 0.0435479 0)
(0.533782 0.0360098 0)
(0.428607 0.0360627 0)
(0.319872 0.0369044 0)
(0.208015 0.0367707 0)
(0.0963372 0.0319376 0)
(0.0219226 0.0141707 0)
(0.0078537 -0.00538003 0)
(0.0319425 -0.0206448 0)
(0.0653939 -0.0266197 0)
(0.0997141 -0.0277313 0)
(0.133754 -0.0273594 0)
(0.16718 -0.0266381 0)
(0.199888 -0.0259296 0)
(0.232005 -0.0253695 0)
(0.263752 -0.0250037 0)
(0.295365 -0.0248441 0)
(0.327079 -0.0248873 0)
(0.359132 -0.025129 0)
(0.39176 -0.0255714 0)
(0.425216 -0.0262234 0)
(0.459773 -0.0271033 0)
(0.495743 -0.0282428 0)
(0.533496 -0.0296929 0)
(0.573478 -0.0315237 0)
(0.616242 -0.0338291 0)
(0.662457 -0.0367224 0)
(0.712891 -0.040285 0)
(0.76831 -0.0444813 0)
(0.829213 -0.0489755 0)
(0.895267 -0.0528168 0)
(0.964524 -0.0542283 0)
(1.0324 -0.0505021 0)
(1.0899 -0.0373283 0)
(1.12868 -0.0118465 0)
(1.15038 0.0172674 0)
(1.14187 0.0374532 0)
(1.10881 0.0409873 0)
(1.07185 0.0303804 0)
(1.04864 0.0148315 0)
(1.04221 0.00126133 0)
(1.04312 0.0113679 0)
(1.08769 0.0552864 0)
(1.11273 0.082964 0)
(1.02404 0.10905 0)
(0.865918 0.10246 0)
(0.71811 0.0846787 0)
(0.596026 0.0775998 0)
(0.483049 0.0774661 0)
(0.370219 0.079711 0)
(0.253714 0.0804476 0)
(0.135646 0.0725326 0)
(0.0423169 0.0427362 0)
(0.014897 -0.0166103 0)
(0.0418647 -0.0347426 0)
(0.0733231 -0.0408948 0)
(0.104333 -0.0419667 0)
(0.134794 -0.0414198 0)
(0.164782 -0.0404841 0)
(0.194312 -0.0395968 0)
(0.223516 -0.0389288 0)
(0.252578 -0.0385405 0)
(0.281697 -0.0384491 0)
(0.311072 -0.038653 0)
(0.340904 -0.0391509 0)
(0.371407 -0.0399505 0)
(0.402805 -0.0410707 0)
(0.435354 -0.0425451 0)
(0.469347 -0.0444276 0)
(0.505135 -0.0467987 0)
(0.543136 -0.049767 0)
(0.583859 -0.0534714 0)
(0.627897 -0.0580632 0)
(0.675883 -0.0636321 0)
(0.728388 -0.0700685 0)
(0.785655 -0.0767907 0)
(0.847101 -0.0823194 0)
(0.910674 -0.0839391 0)
(0.972053 -0.0774339 0)
(1.02331 -0.0578883 0)
(1.05555 -0.0247676 0)
(1.06631 0.0136298 0)
(1.05967 0.0419774 0)
(1.04573 0.0490916 0)
(1.03733 0.0364725 0)
(1.03992 0.0151478 0)
(1.04362 -0.0069593 0)
(1.01494 -0.0426144 0)
(0.970327 -0.0260033 0)
(0.920072 0.0601345 0)
(0.848642 0.137905 0)
(0.756693 0.159064 0)
(0.659777 0.143738 0)
(0.562363 0.130345 0)
(0.463994 0.127985 0)
(0.363275 0.130869 0)
(0.258141 0.132523 0)
(0.150431 0.122886 0)
(0.0552258 0.0881407 0)
(0.0190031 -0.0308615 0)
(0.0479494 -0.0497919 0)
(0.0780227 -0.0550929 0)
(0.106508 -0.055738 0)
(0.134127 -0.0548979 0)
(0.161303 -0.053734 0)
(0.188172 -0.0526901 0)
(0.214893 -0.0519492 0)
(0.241636 -0.0515751 0)
(0.268577 -0.0515861 0)
(0.29589 -0.051981 0)
(0.323755 -0.0527612 0)
(0.352362 -0.0539401 0)
(0.381918 -0.055547 0)
(0.412657 -0.0576307 0)
(0.444854 -0.0602665 0)
(0.478833 -0.0635624 0)
(0.514976 -0.0676606 0)
(0.553733 -0.0727339 0)
(0.59561 -0.0789562 0)
(0.641107 -0.0864025 0)
(0.690622 -0.0948654 0)
(0.744214 -0.103513 0)
(0.80119 -0.110364 0)
(0.859622 -0.111872 0)
(0.915802 -0.102574 0)
(0.962913 -0.0763852 0)
(0.992425 -0.0336427 0)
(1.00218 0.0125618 0)
(1.00083 0.0437003 0)
(1.00121 0.0499866 0)
(1.0091 0.036003 0)
(1.01998 0.0145843 0)
(1.01479 0.00250739 0)
(0.97013 -0.00590713 0)
(0.890931 0.0228037 0)
(0.797722 0.0983349 0)
(0.721616 0.172445 0)
(0.660378 0.195525 0)
(0.595097 0.184409 0)
(0.518667 0.173373 0)
(0.435112 0.172581 0)
(0.346906 0.177459 0)
(0.253196 0.180971 0)
(0.155366 0.172214 0)
(0.0616886 0.137193 0)
(0.0210088 -0.0466748 0)
(0.0511223 -0.0648951 0)
(0.0801902 -0.0685743 0)
(0.10681 -0.0685225 0)
(0.13223 -0.0673416 0)
(0.15714 -0.0659851 0)
(0.181797 -0.0648462 0)
(0.206402 -0.0640966 0)
(0.23113 -0.0637964 0)
(0.256149 -0.0639616 0)
(0.281619 -0.0645916 0)
(0.307705 -0.0656906 0)
(0.334582 -0.0672784 0)
(0.362439 -0.0693945 0)
(0.391493 -0.072103 0)
(0.421994 -0.0754982 0)
(0.454236 -0.0797124 0)
(0.488557 -0.084914 0)
(0.525342 -0.0912986 0)
(0.565002 -0.0990473 0)
(0.607917 -0.108204 0)
(0.654336 -0.118455 0)
(0.704209 -0.128738 0)
(0.756852 -0.136648 0)
(0.810663 -0.137967 0)
(0.862813 -0.126197 0)
(0.907614 -0.0941042 0)
(0.936967 -0.0429716 0)
(0.949759 0.00904405 0)
(0.957104 0.0412872 0)
(0.969612 0.0476335 0)
(0.984572 0.033335 0)
(0.9876 0.0124762 0)
(0.958804 0.0142866 0)
(0.897375 0.0293596 0)
(0.796872 0.0730405 0)
(0.697319 0.143486 0)
(0.631916 0.201304 0)
(0.588224 0.21986 0)
(0.539404 0.213739 0)
(0.477254 0.207903 0)
(0.406088 0.210432 0)
(0.328945 0.217962 0)
(0.245238 0.224131 0)
(0.155607 0.218377 0)
(0.06447 0.18699 0)
(0.0217551 -0.0632432 0)
(0.0522548 -0.0798413 0)
(0.0804704 -0.0813961 0)
(0.105709 -0.0804103 0)
(0.129463 -0.0788083 0)
(0.152587 -0.077255 0)
(0.175443 -0.076049 0)
(0.198276 -0.0753287 0)
(0.221279 -0.0751407 0)
(0.244621 -0.0754946 0)
(0.268458 -0.0763885 0)
(0.292947 -0.077829 0)
(0.31825 -0.0798411 0)
(0.344544 -0.0824739 0)
(0.372026 -0.0858046 0)
(0.400924 -0.0899439 0)
(0.431495 -0.0950421 0)
(0.464033 -0.101286 0)
(0.498851 -0.108884 0)
(0.536269 -0.118009 0)
(0.576552 -0.128666 0)
(0.619829 -0.140441 0)
(0.665989 -0.152085 0)
(0.714437 -0.160886 0)
(0.764028 -0.162158 0)
(0.812988 -0.148595 0)
(0.856751 -0.11181 0)
(0.887559 -0.053819 0)
(0.905677 0.00254767 0)
(0.922274 0.0362215 0)
(0.942012 0.0435549 0)
(0.953335 0.0283014 0)
(0.935705 0.0174394 0)
(0.891086 0.040159 0)
(0.809109 0.0736606 0)
(0.706368 0.121548 0)
(0.620344 0.179306 0)
(0.568299 0.223193 0)
(0.533233 0.238627 0)
(0.492821 0.237445 0)
(0.440527 0.236915 0)
(0.379404 0.243025 0)
(0.311786 0.25361 0)
(0.236653 0.263154 0)
(0.153819 0.26197 0)
(0.0654855 0.23687 0)
(0.0217101 -0.0799907 0)
(0.0519856 -0.0945244 0)
(0.0794141 -0.093735 0)
(0.103634 -0.0916518 0)
(0.126159 -0.0895385 0)
(0.147915 -0.0877517 0)
(0.169341 -0.0864722 0)
(0.190726 -0.085789 0)
(0.212281 -0.0857267 0)
(0.234187 -0.0862835 0)
(0.256601 -0.0874539 0)
(0.279676 -0.0892444 0)
(0.303567 -0.0916841 0)
(0.328439 -0.0948297 0)
(0.354474 -0.0987685 0)
(0.381873 -0.103623 0)
(0.410861 -0.109557 0)
(0.44168 -0.116768 0)
(0.474576 -0.125462 0)
(0.50978 -0.1358 0)
(0.54745 -0.147741 0)
(0.587614 -0.160786 0)
(0.63013 -0.173553 0)
(0.674522 -0.183148 0)
(0.720146 -0.184638 0)
(0.766344 -0.170155 0)
(0.809549 -0.130133 0)
(0.84296 -0.066614 0)
(0.867738 -0.0062145 0)
(0.891244 0.0298179 0)
(0.910456 0.0369543 0)
(0.906837 0.0245222 0)
(0.879641 0.037855 0)
(0.813954 0.0760456 0)
(0.723657 0.118564 0)
(0.633233 0.162991 0)
(0.563814 0.208415 0)
(0.520975 0.241315 0)
(0.489727 0.254887 0)
(0.454015 0.257819 0)
(0.408898 0.261794 0)
(0.356002 0.271405 0)
(0.296513 0.28531 0)
(0.228697 0.298907 0)
(0.151516 0.303501 0)
(0.0657728 0.286448 0)
(0.0211364 -0.0965111 0)
(0.0507724 -0.10884 0)
(0.077472 -0.105704 0)
(0.100959 -0.102442 0)
(0.122615 -0.0997395 0)
(0.143365 -0.0976689 0)
(0.163695 -0.0962882 0)
(0.183929 -0.0956291 0)
(0.204303 -0.0956872 0)
(0.225007 -0.0964456 0)
(0.246206 -0.0978914 0)
(0.268053 -0.10003 0)
(0.290701 -0.102891 0)
(0.314303 -0.106536 0)
(0.339028 -0.111061 0)
(0.365053 -0.116596 0)
(0.392567 -0.123309 0)
(0.421766 -0.131402 0)
(0.452829 -0.141074 0)
(0.485902 -0.152458 0)
(0.521049 -0.165471 0)
(0.558208 -0.179543 0)
(0.597211 -0.193214 0)
(0.637689 -0.203528 0)
(0.679468 -0.205509 0)
(0.72289 -0.191014 0)
(0.765221 -0.149391 0)
(0.802241 -0.0815736 0)
(0.834265 -0.0166978 0)
(0.861328 0.0217768 0)
(0.873895 0.0253337 0)
(0.867162 0.0349419 0)
(0.820868 0.0672396 0)
(0.740185 0.11542 0)
(0.654238 0.159036 0)
(0.578282 0.19749 0)
(0.521409 0.232438 0)
(0.483903 0.257503 0)
(0.454413 0.269868 0)
(0.421822 0.275806 0)
(0.382305 0.283406 0)
(0.33624 0.296244 0)
(0.283713 0.313639 0)
(0.222168 0.331897 0)
(0.149711 0.343255 0)
(0.0659671 0.335601 0)
(0.0201975 -0.112529 0)
(0.0489602 -0.122722 0)
(0.0750183 -0.117384 0)
(0.098012 -0.112924 0)
(0.119096 -0.109573 0)
(0.13915 -0.107164 0)
(0.158681 -0.105644 0)
(0.178039 -0.104982 0)
(0.19748 -0.105142 0)
(0.217208 -0.106088 0)
(0.237398 -0.107798 0)
(0.258207 -0.110273 0)
(0.279783 -0.113542 0)
(0.302277 -0.117669 0)
(0.32584 -0.122752 0)
(0.350631 -0.128925 0)
(0.376805 -0.136358 0)
(0.404512 -0.145247 0)
(0.433871 -0.155774 0)
(0.464951 -0.168043 0)
(0.497726 -0.181924 0)
(0.532057 -0.196793 0)
(0.567743 -0.211154 0)
(0.60448 -0.222086 0)
(0.642453 -0.224739 0)
(0.682743 -0.211049 0)
(0.723441 -0.169644 0)
(0.764626 -0.0994339 0)
(0.804763 -0.0293339 0)
(0.840226 0.00896229 0)
(0.857513 0.0234633 0)
(0.83114 0.0538406 0)
(0.764884 0.102285 0)
(0.679725 0.153993 0)
(0.601792 0.194576 0)
(0.537145 0.226383 0)
(0.488308 0.2532 0)
(0.453884 0.272621 0)
(0.425492 0.283966 0)
(0.395408 0.291949 0)
(0.360498 0.302329 0)
(0.320223 0.318064 0)
(0.273751 0.339047 0)
(0.217671 0.36251 0)
(0.149255 0.381521 0)
(0.0665947 0.384604 0)
(0.0190076 -0.127869 0)
(0.0468262 -0.136166 0)
(0.0723701 -0.128849 0)
(0.0950749 -0.123216 0)
(0.115838 -0.119171 0)
(0.135461 -0.116373 0)
(0.154455 -0.114666 0)
(0.173185 -0.113965 0)
(0.191925 -0.114199 0)
(0.210894 -0.115311 0)
(0.230275 -0.117267 0)
(0.250231 -0.12006 0)
(0.270912 -0.123718 0)
(0.292462 -0.128302 0)
(0.315024 -0.133912 0)
(0.338734 -0.14068 0)
(0.36372 -0.148772 0)
(0.39009 -0.158371 0)
(0.417907 -0.169638 0)
(0.447171 -0.182638 0)
(0.47778 -0.197194 0)
(0.50952 -0.212641 0)
(0.542151 -0.227475 0)
(0.57538 -0.238875 0)
(0.609608 -0.24223 0)
(0.646298 -0.229932 0)
(0.684304 -0.19105 0)
(0.729113 -0.122595 0)
(0.779341 -0.0464812 0)
(0.854428 -0.00310566 0)
(0.848731 0.0303357 0)
(0.796149 0.0809463 0)
(0.716579 0.140256 0)
(0.632946 0.19095 0)
(0.562489 0.226156 0)
(0.505421 0.251525 0)
(0.461738 0.271914 0)
(0.429331 0.286994 0)
(0.401976 0.297315 0)
(0.374157 0.306532 0)
(0.343207 0.31897 0)
(0.307967 0.337263 0)
(0.266912 0.361875 0)
(0.215763 0.391046 0)
(0.151028 0.418608 0)
(0.0682236 0.434132 0)
(0.0176751 -0.142431 0)
(0.0446117 -0.149214 0)
(0.0698011 -0.140177 0)
(0.0923943 -0.133416 0)
(0.113045 -0.128647 0)
(0.132464 -0.125409 0)
(0.15115 -0.123469 0)
(0.169477 -0.122689 0)
(0.187731 -0.122962 0)
(0.206144 -0.124211 0)
(0.224909 -0.126388 0)
(0.244196 -0.129477 0)
(0.264157 -0.1335 0)
(0.284934 -0.138516 0)
(0.306659 -0.144619 0)
(0.329452 -0.151938 0)
(0.353415 -0.160628 0)
(0.378619 -0.170855 0)
(0.405081 -0.182752 0)
(0.432738 -0.196341 0)
(0.461424 -0.211399 0)
(0.490862 -0.227222 0)
(0.520762 -0.242314 0)
(0.550809 -0.25399 0)
(0.58147 -0.257934 0)
(0.614386 -0.24731 0)
(0.648668 -0.212863 0)
(0.693783 -0.151907 0)
(0.749819 -0.075441 0)
(0.858443 -0.012847 0)
(0.830156 0.0445335 0)
(0.760086 0.114726 0)
(0.676041 0.179474 0)
(0.596905 0.225856 0)
(0.532191 0.254762 0)
(0.480407 0.274198 0)
(0.440274 0.289231 0)
(0.409472 0.300743 0)
(0.38328 0.309913 0)
(0.357629 0.319716 0)
(0.330201 0.333608 0)
(0.29948 0.354118 0)
(0.263478 0.382331 0)
(0.217042 0.417661 0)
(0.156125 0.454768 0)
(0.0715844 0.485275 0)
(0.0163426 -0.156196 0)
(0.0425414 -0.161952 0)
(0.0675493 -0.151448 0)
(0.0901817 -0.14361 0)
(0.110893 -0.138098 0)
(0.1303 -0.134377 0)
(0.148879 -0.132158 0)
(0.167004 -0.131254 0)
(0.18497 -0.131529 0)
(0.203019 -0.132883 0)
(0.221353 -0.135251 0)
(0.24015 -0.13861 0)
(0.259564 -0.142972 0)
(0.279737 -0.14839 0)
(0.300793 -0.154952 0)
(0.322838 -0.162778 0)
(0.345952 -0.17201 0)
(0.370174 -0.18279 0)
(0.39548 -0.195217 0)
(0.42176 -0.209271 0)
(0.448793 -0.224675 0)
(0.476249 -0.240693 0)
(0.503793 -0.255846 0)
(0.531072 -0.267589 0)
(0.558522 -0.271929 0)
(0.587813 -0.262899 0)
(0.61791 -0.233219 0)
(0.658853 -0.181026 0)
(0.708305 -0.105987 0)
(0.831403 -0.0244638 0)
(0.798219 0.0623276 0)
(0.722982 0.150691 0)
(0.641817 0.217646 0)
(0.568133 0.258418 0)
(0.508349 0.281118 0)
(0.460629 0.295072 0)
(0.423245 0.305478 0)
(0.393941 0.313865 0)
(0.369068 0.321732 0)
(0.345534 0.33161 0)
(0.321331 0.346437 0)
(0.294809 0.368791 0)
(0.263779 0.400475 0)
(0.222221 0.442312 0)
(0.166066 0.490104 0)
(0.0777273 0.539765 0)
(0.0152008 -0.169222 0)
(0.0408271 -0.174473 0)
(0.065815 -0.162728 0)
(0.0886109 -0.153869 0)
(0.109524 -0.147602 0)
(0.129081 -0.143363 0)
(0.147728 -0.140821 0)
(0.165832 -0.139751 0)
(0.183691 -0.139989 0)
(0.201555 -0.141413 0)
(0.219635 -0.143943 0)
(0.238114 -0.147542 0)
(0.257152 -0.152216 0)
(0.276889 -0.158007 0)
(0.297444 -0.164994 0)
(0.318911 -0.173286 0)
(0.341351 -0.183006 0)
(0.364778 -0.194269 0)
(0.389137 -0.20714 0)
(0.414276 -0.221547 0)
(0.439936 -0.237167 0)
(0.465747 -0.253228 0)
(0.491335 -0.268269 0)
(0.516317 -0.279885 0)
(0.541053 -0.284398 0)
(0.567089 -0.276629 0)
(0.593086 -0.25084 0)
(0.628266 -0.205027 0)
(0.668669 -0.137817 0)
(0.79232 -0.03841 0)
(0.75916 0.0797709 0)
(0.687085 0.185631 0)
(0.612275 0.253249 0)
(0.544814 0.288584 0)
(0.489656 0.305517 0)
(0.445419 0.314488 0)
(0.41041 0.320785 0)
(0.382607 0.326329 0)
(0.359173 0.332753 0)
(0.33771 0.34229 0)
(0.31653 0.357579 0)
(0.294058 0.381344 0)
(0.268194 0.4162 0)
(0.232173 0.464654 0)
(0.183131 0.524434 0)
(0.0883101 0.599925 0)
(0.0144573 -0.181661 0)
(0.039657 -0.186846 0)
(0.0647585 -0.174044 0)
(0.0878193 -0.16422 0)
(0.109051 -0.157198 0)
(0.128895 -0.152414 0)
(0.147763 -0.149511 0)
(0.166007 -0.148236 0)
(0.183925 -0.148399 0)
(0.201771 -0.149858 0)
(0.219763 -0.152518 0)
(0.23809 -0.15633 0)
(0.256916 -0.161286 0)
(0.27638 -0.167421 0)
(0.296598 -0.1748 0)
(0.317655 -0.183518 0)
(0.339596 -0.193677 0)
(0.362415 -0.205363 0)
(0.386031 -0.2186 0)
(0.410264 -0.233269 0)
(0.434827 -0.248997 0)
(0.459328 -0.264979 0)
(0.483365 -0.27977 0)
(0.506536 -0.29109 0)
(0.529121 -0.295548 0)
(0.552371 -0.288618 0)
(0.574639 -0.265928 0)
(0.604988 -0.225625 0)
(0.641153 -0.168894 0)
(0.7541 -0.0516 0)
(0.719504 0.0969913 0)
(0.653496 0.21775 0)
(0.587023 0.285538 0)
(0.526268 0.316153 0)
(0.47565 0.32803 0)
(0.434616 0.332535 0)
(0.401798 0.335139 0)
(0.375517 0.338033 0)
(0.353578 0.342892 0)
(0.33413 0.351737 0)
(0.315835 0.367027 0)
(0.297397 0.391665 0)
(0.277151 0.429136 0)
(0.247956 0.483846 0)
(0.210526 0.557214 0)
(0.105773 0.670905 0)
(0.0142547 -0.193784 0)
(0.0391748 -0.199184 0)
(0.0644908 -0.185454 0)
(0.0879079 -0.174714 0)
(0.109561 -0.166937 0)
(0.129814 -0.161586 0)
(0.14904 -0.158288 0)
(0.167572 -0.156771 0)
(0.185705 -0.156822 0)
(0.203692 -0.158282 0)
(0.221756 -0.16104 0)
(0.24009 -0.165035 0)
(0.258863 -0.170247 0)
(0.278215 -0.176696 0)
(0.298256 -0.184435 0)
(0.319066 -0.193542 0)
(0.340678 -0.204096 0)
(0.36307 -0.216151 0)
(0.386142 -0.229689 0)
(0.409696 -0.244546 0)
(0.433428 -0.260296 0)
(0.456938 -0.276106 0)
(0.479809 -0.290543 0)
(0.50164 -0.301436 0)
(0.522662 -0.305623 0)
(0.543656 -0.299134 0)
(0.562624 -0.279091 0)
(0.588924 -0.244429 0)
(0.622453 -0.195991 0)
(0.717354 -0.0611901 0)
(0.681579 0.114123 0)
(0.623588 0.246352 0)
(0.566464 0.314093 0)
(0.512595 0.340996 0)
(0.466443 0.348621 0)
(0.428413 0.349188 0)
(0.397642 0.348459 0)
(0.372856 0.348846 0)
(0.352405 0.352029 0)
(0.3349 0.359862 0)
(0.319396 0.374663 0)
(0.305078 0.399472 0)
(0.291103 0.438577 0)
(0.270829 0.498253 0)
(0.252962 0.587541 0)
(0.136369 0.752687 0)
(0.0145377 -0.205844 0)
(0.0393842 -0.211639 0)
(0.0649863 -0.197073 0)
(0.0888372 -0.185474 0)
(0.110997 -0.17696 0)
(0.131761 -0.17103 0)
(0.151464 -0.167314 0)
(0.170419 -0.165522 0)
(0.188907 -0.165428 0)
(0.207181 -0.166856 0)
(0.225466 -0.169683 0)
(0.243957 -0.173831 0)
(0.262825 -0.17927 0)
(0.282211 -0.186006 0)
(0.302224 -0.194076 0)
(0.322936 -0.203538 0)
(0.344372 -0.214447 0)
(0.366499 -0.226824 0)
(0.389204 -0.240613 0)
(0.41228 -0.255597 0)
(0.435418 -0.271309 0)
(0.458219 -0.286884 0)
(0.480273 -0.300906 0)
(0.501202 -0.311293 0)
(0.521256 -0.315053 0)
(0.540392 -0.308731 0)
(0.556545 -0.290791 0)
(0.578952 -0.261035 0)
(0.608367 -0.218621 0)
(0.680962 -0.0675157 0)
(0.647536 0.129164 0)
(0.598818 0.270358 0)
(0.551185 0.338744 0)
(0.504185 0.363291 0)
(0.462323 0.367629 0)
(0.427068 0.364842 0)
(0.398156 0.361121 0)
(0.374757 0.359123 0)
(0.355714 0.360526 0)
(0.340063 0.367025 0)
(0.327291 0.380764 0)
(0.317253 0.404758 0)
(0.310322 0.443734 0)
(0.302205 0.505274 0)
(0.311231 0.608957 0)
(0.16791 0.872419 0)
(0.00312104 -0.00217303 0)
(0.0185058 -0.00689775 0)
(0.0446336 -0.00834854 0)
(0.0702922 -0.00793691 0)
(0.0928096 -0.00672438 0)
(0.111011 -0.00546012 0)
(0.124997 -0.00417148 0)
(0.134956 -0.00268474 0)
(0.141233 -0.00162345 0)
(0.144818 -0.000808711 0)
(0.146101 -0.000168532 0)
(0.145745 0.000154771 0)
(0.143999 0.000864269 0)
(0.140908 0.00142697 0)
(0.13706 0.00152711 0)
(0.132754 0.001568 0)
(0.128051 0.00165892 0)
(0.123003 0.00175452 0)
(0.117685 0.00183548 0)
(0.112163 0.00189835 0)
(0.106482 0.00194719 0)
(0.100678 0.00198452 0)
(0.0947801 0.00201293 0)
(0.0888084 0.00203514 0)
(0.0827822 0.0020508 0)
(0.0767127 0.00206337 0)
(0.0706032 0.00207602 0)
(0.0644508 0.00209082 0)
(0.0582398 0.00211172 0)
(0.0519505 0.00213956 0)
(0.0455511 0.00217779 0)
(0.0390046 0.00222633 0)
(0.0322734 0.00228206 0)
(0.025335 0.00233226 0)
(0.0182298 0.00234166 0)
(0.0111365 0.00222056 0)
(0.00452057 0.00168775 0)
(0.000673956 0.000495219 0)
(0.00679642 -0.00614186 0)
(0.02498 -0.0143999 0)
(0.0500823 -0.0165231 0)
(0.0741282 -0.0154492 0)
(0.0949001 -0.0129795 0)
(0.111671 -0.0101884 0)
(0.124407 -0.00753453 0)
(0.133488 -0.005118 0)
(0.139337 -0.00313751 0)
(0.142635 -0.00154218 0)
(0.143801 -0.000266489 0)
(0.143395 0.000688873 0)
(0.141684 0.00151243 0)
(0.138857 0.00213491 0)
(0.135248 0.00254909 0)
(0.131054 0.0028683 0)
(0.126418 0.00312514 0)
(0.121446 0.00332347 0)
(0.116213 0.00347631 0)
(0.110783 0.00359256 0)
(0.105203 0.0036823 0)
(0.0995091 0.00375136 0)
(0.0937333 0.00380369 0)
(0.0878958 0.00384458 0)
(0.0820132 0.00387518 0)
(0.0760931 0.00390099 0)
(0.0701365 0.00392795 0)
(0.0641412 0.00395993 0)
(0.0580945 0.00400448 0)
(0.0519816 0.00406472 0)
(0.0457782 0.00414681 0)
(0.0394568 0.0042533 0)
(0.0329908 0.00437882 0)
(0.026363 0.0045022 0)
(0.0196029 0.00456012 0)
(0.0128281 0.00439456 0)
(0.00636444 0.00356428 0)
(0.00173666 0.00159787 0)
(0.00996969 -0.0134901 0)
(0.0296698 -0.0242807 0)
(0.0537615 -0.0264069 0)
(0.0760317 -0.0243478 0)
(0.0948069 -0.0203975 0)
(0.109773 -0.0160038 0)
(0.120964 -0.0118238 0)
(0.128864 -0.00805647 0)
(0.133942 -0.00492309 0)
(0.136703 -0.00239944 0)
(0.137568 -0.000396499 0)
(0.13693 0.00116305 0)
(0.135099 0.00246812 0)
(0.132366 0.00348607 0)
(0.12893 0.00418799 0)
(0.124909 0.00470256 0)
(0.120457 0.00510734 0)
(0.115694 0.00542263 0)
(0.110693 0.00566603 0)
(0.105516 0.00585168 0)
(0.100208 0.00599215 0)
(0.0948032 0.00609862 0)
(0.0893309 0.00617817 0)
(0.0838093 0.00623893 0)
(0.0782517 0.00628531 0)
(0.0726642 0.00632433 0)
(0.0670472 0.00636471 0)
(0.0614001 0.00641287 0)
(0.0557138 0.00647745 0)
(0.049979 0.00656492 0)
(0.0441799 0.00668146 0)
(0.0382984 0.0068316 0)
(0.0323182 0.00700745 0)
(0.0262261 0.00718044 0)
(0.0200392 0.00726552 0)
(0.0138076 0.00705886 0)
(0.00771798 0.00602881 0)
(0.00269156 0.00351795 0)
(0.0117296 -0.0218524 0)
(0.032409 -0.0345022 0)
(0.0561537 -0.036077 0)
(0.0771877 -0.0327658 0)
(0.094303 -0.027239 0)
(0.107596 -0.0212455 0)
(0.117294 -0.0156133 0)
(0.123987 -0.0106097 0)
(0.128182 -0.00643929 0)
(0.130318 -0.00306898 0)
(0.130791 -0.00038741 0)
(0.129909 0.0017249 0)
(0.127976 0.00345151 0)
(0.125276 0.00479584 0)
(0.121949 0.00576183 0)
(0.118093 0.00647663 0)
(0.113841 0.00703 0)
(0.109304 0.00745695 0)
(0.104554 0.0077834 0)
(0.0996497 0.00803075 0)
(0.0946333 0.00821639 0)
(0.0895364 0.00835563 0)
(0.0843847 0.00845848 0)
(0.0791946 0.00853549 0)
(0.0739777 0.00859447 0)
(0.0687392 0.00864428 0)
(0.06348 0.00869539 0)
(0.0582009 0.00875587 0)
(0.0528963 0.00883524 0)
(0.0475615 0.00894207 0)
(0.0421871 0.00908334 0)
(0.0367613 0.00926468 0)
(0.0312734 0.00947746 0)
(0.0257097 0.00968939 0)
(0.0200702 0.00980564 0)
(0.0143407 0.00960365 0)
(0.00859975 0.0085328 0)
(0.00334206 0.00581718 0)
(0.0122345 -0.0307666 0)
(0.0335299 -0.0448734 0)
(0.0576612 -0.045517 0)
(0.0780792 -0.0406547 0)
(0.0939393 -0.0334234 0)
(0.105767 -0.0258314 0)
(0.114074 -0.0188279 0)
(0.119589 -0.0127081 0)
(0.122874 -0.0076231 0)
(0.12435 -0.00350925 0)
(0.12438 -0.000229412 0)
(0.123231 0.00236567 0)
(0.121174 0.00445125 0)
(0.118455 0.00607138 0)
(0.115188 0.00727124 0)
(0.111461 0.00817081 0)
(0.107386 0.00886006 0)
(0.103058 0.00938647 0)
(0.0985442 0.00978581 0)
(0.0938979 0.0100863 0)
(0.0891586 0.0103096 0)
(0.0843541 0.0104747 0)
(0.0795071 0.0105952 0)
(0.0746322 0.010684 0)
(0.0697394 0.0107518 0)
(0.0648339 0.0108089 0)
(0.0599168 0.0108665 0)
(0.0549903 0.0109342 0)
(0.0500515 0.011022 0)
(0.0450986 0.0111399 0)
(0.0401267 0.0112956 0)
(0.0351275 0.0114958 0)
(0.0300919 0.0117328 0)
(0.0250025 0.0119746 0)
(0.0198414 0.0121272 0)
(0.0145411 0.0119716 0)
(0.00910661 0.0109874 0)
(0.00374602 0.00835486 0)
(0.0115833 -0.0396897 0)
(0.0333057 -0.0555517 0)
(0.0586649 -0.0550123 0)
(0.0790734 -0.0482223 0)
(0.0940369 -0.039067 0)
(0.104583 -0.0298259 0)
(0.111592 -0.0215017 0)
(0.115968 -0.0143596 0)
(0.118341 -0.00846674 0)
(0.119138 -0.00370777 0)
(0.118695 8.76915e-05 0)
(0.117249 0.00309476 0)
(0.115034 0.00548734 0)
(0.112252 0.00734452 0)
(0.109002 0.00874442 0)
(0.105364 0.00980321 0)
(0.10143 0.0106105 0)
(0.0972808 0.011223 0)
(0.0929746 0.0116844 0)
(0.0885588 0.0120289 0)
(0.0840686 0.0122823 0)
(0.0795282 0.0124672 0)
(0.0749574 0.0126003 0)
(0.070369 0.012697 0)
(0.0657715 0.0127698 0)
(0.0611701 0.0128302 0)
(0.0565662 0.0128902 0)
(0.0519624 0.0129601 0)
(0.0473581 0.0130505 0)
(0.0427528 0.0131722 0)
(0.0381439 0.013334 0)
(0.0335243 0.0135438 0)
(0.0288843 0.0137966 0)
(0.0242011 0.0140643 0)
(0.0194412 0.0142614 0)
(0.0144979 0.014188 0)
(0.00933044 0.0133826 0)
(0.00396395 0.0110283 0)
(0.00970073 -0.0480695 0)
(0.0319271 -0.0667804 0)
(0.0595503 -0.0649107 0)
(0.0805302 -0.0556901 0)
(0.0948688 -0.0442885 0)
(0.104254 -0.033292 0)
(0.110021 -0.0236674 0)
(0.113283 -0.0155776 0)
(0.114745 -0.00897016 0)
(0.114849 -0.00365679 0)
(0.113907 0.000575256 0)
(0.112132 0.00392695 0)
(0.109722 0.00657818 0)
(0.106838 0.00863621 0)
(0.103567 0.010203 0)
(0.0999773 0.0113941 0)
(0.0961464 0.0123001 0)
(0.0921388 0.0129843 0)
(0.0880052 0.0134964 0)
(0.0837854 0.0138757 0)
(0.0795099 0.014152 0)
(0.0751992 0.0143509 0)
(0.0708701 0.014492 0)
(0.0665336 0.0145924 0)
(0.0621968 0.0146664 0)
(0.0578644 0.0147263 0)
(0.053538 0.0147849 0)
(0.0492203 0.0148528 0)
(0.0449114 0.0149412 0)
(0.0406113 0.0150614 0)
(0.0363179 0.0152237 0)
(0.0320235 0.0154377 0)
(0.0277164 0.0157022 0)
(0.0233687 0.0159958 0)
(0.0189341 0.0162467 0)
(0.0142813 0.0162834 0)
(0.00934325 0.0157163 0)
(0.00403828 0.0137537 0)
(0.00634478 -0.0553212 0)
(0.0296016 -0.0789046 0)
(0.0607675 -0.0755802 0)
(0.0828467 -0.0632342 0)
(0.096705 -0.0491568 0)
(0.104958 -0.0362569 0)
(0.109489 -0.0253366 0)
(0.111635 -0.0163657 0)
(0.112178 -0.00913026 0)
(0.111571 -0.00334814 0)
(0.110105 0.00124484 0)
(0.10797 0.00487718 0)
(0.105328 0.00773984 0)
(0.102306 0.00996256 0)
(0.0989744 0.0116641 0)
(0.0953947 0.0129612 0)
(0.091627 0.0139459 0)
(0.0877229 0.0146867 0)
(0.0837237 0.0152378 0)
(0.0796624 0.0156429 0)
(0.0755641 0.0159349 0)
(0.0714456 0.0161421 0)
(0.0673207 0.0162865 0)
(0.0631984 0.0163866 0)
(0.0590845 0.0164581 0)
(0.0549831 0.0165142 0)
(0.0508952 0.0165679 0)
(0.0468232 0.0166304 0)
(0.0427669 0.0167132 0)
(0.0387257 0.0168287 0)
(0.0346968 0.0169883 0)
(0.0306709 0.0172041 0)
(0.0266333 0.0174797 0)
(0.0225515 0.0178017 0)
(0.0183707 0.0181152 0)
(0.013947 0.0182809 0)
(0.00920249 0.0179845 0)
(0.00400478 0.0164674 0)
(0.00113913 -0.0609417 0)
(0.0267388 -0.0924426 0)
(0.0629211 -0.0874178 0)
(0.086494 -0.0709728 0)
(0.0998309 -0.053682 0)
(0.106866 -0.0387104 0)
(0.110103 -0.0265001 0)
(0.111101 -0.0167173 0)
(0.110701 -0.00893959 0)
(0.109359 -0.00277208 0)
(0.107341 0.00210863 0)
(0.104812 0.00596033 0)
(0.101902 0.00898779 0)
(0.0987052 0.0113387 0)
(0.0952778 0.0131437 0)
(0.091669 0.014521 0)
(0.0879246 0.0155645 0)
(0.0840843 0.0163467 0)
(0.0801802 0.0169252 0)
(0.076238 0.0173469 0)
(0.0722777 0.0176474 0)
(0.0683123 0.0178572 0)
(0.0643526 0.0180001 0)
(0.0604055 0.0180959 0)
(0.0564754 0.0181614 0)
(0.0525651 0.0182106 0)
(0.0486751 0.0182565 0)
(0.0448066 0.018311 0)
(0.0409586 0.0183861 0)
(0.0371289 0.0184951 0)
(0.0333128 0.018651 0)
(0.0294986 0.0188687 0)
(0.0256686 0.019157 0)
(0.0217866 0.0195113 0)
(0.0177931 0.0198944 0)
(0.0135417 0.0202 0)
(0.00895557 0.0201853 0)
(0.00389457 0.0191238 0)
(-0.00607455 -0.0648504 0)
(0.0242884 -0.108109 0)
(0.0668964 -0.100809 0)
(0.0920472 -0.078928 0)
(0.104549 -0.0577984 0)
(0.110138 -0.0406004 0)
(0.111957 -0.0271279 0)
(0.11174 -0.0166149 0)
(0.110358 -0.00838556 0)
(0.108249 -0.00191633 0)
(0.105647 0.00318004 0)
(0.102691 0.00719144 0)
(0.0994757 0.0103374 0)
(0.0960676 0.01278 0)
(0.0925073 0.0146577 0)
(0.0888305 0.0160902 0)
(0.0850696 0.017173 0)
(0.0812528 0.0179815 0)
(0.0774035 0.0185756 0)
(0.0735403 0.0190046 0)
(0.069678 0.0193064 0)
(0.0658259 0.0195129 0)
(0.0619916 0.0196496 0)
(0.05818 0.0197373 0)
(0.0543937 0.0197935 0)
(0.0506342 0.0198327 0)
(0.0469008 0.0198685 0)
(0.0431932 0.0199133 0)
(0.0395087 0.0199795 0)
(0.035843 0.0200817 0)
(0.0321887 0.0202348 0)
(0.0285314 0.0204564 0)
(0.0248499 0.0207607 0)
(0.0211058 0.021152 0)
(0.0172378 0.02161 0)
(0.0131053 0.0220592 0)
(0.00864249 0.0223204 0)
(0.00373327 0.0216928 0)
(-0.0140471 -0.0671587 0)
(0.0243729 -0.12675 0)
(0.0740154 -0.116003 0)
(0.100193 -0.086949 0)
(0.11117 -0.061339 0)
(0.114924 -0.0418274 0)
(0.115133 -0.0271684 0)
(0.113605 -0.0160307 0)
(0.111185 -0.00745014 0)
(0.108269 -0.000765851 0)
(0.105047 0.00447385 0)
(0.101627 0.00858605 0)
(0.0980693 0.0118045 0)
(0.0944132 0.0143022 0)
(0.0906823 0.0162224 0)
(0.0868983 0.0176857 0)
(0.0830807 0.0187886 0)
(0.0792467 0.0196082 0)
(0.0754114 0.0202061 0)
(0.0715866 0.0206331 0)
(0.0677818 0.0209289 0)
(0.0640028 0.0211264 0)
(0.0602538 0.0212522 0)
(0.0565375 0.0213278 0)
(0.0528548 0.0213714 0)
(0.0492054 0.0213982 0)
(0.0455873 0.0214219 0)
(0.041998 0.0214558 0)
(0.0384328 0.021513 0)
(0.0348845 0.0216093 0)
(0.0313426 0.0217617 0)
(0.0277897 0.0219908 0)
(0.0242013 0.0223158 0)
(0.0205374 0.0227492 0)
(0.0167377 0.0232858 0)
(0.0126735 0.0238769 0)
(0.00829798 0.0243949 0)
(0.00354151 0.0241566 0)
(-0.0177698 -0.0668266 0)
(0.0312972 -0.1492 0)
(0.0861737 -0.132827 0)
(0.111684 -0.0945973 0)
(0.11997 -0.0640117 0)
(0.121343 -0.0422451 0)
(0.119698 -0.0265518 0)
(0.116739 -0.0149286 0)
(0.113213 -0.00611092 0)
(0.109442 0.000696823 0)
(0.105562 0.00600621 0)
(0.10164 0.0101606 0)
(0.0977003 0.0134056 0)
(0.0937578 0.0159218 0)
(0.0898174 0.0178548 0)
(0.0858862 0.0193251 0)
(0.081971 0.0204291 0)
(0.0780788 0.0212448 0)
(0.0742163 0.0218348 0)
(0.0703889 0.0222505 0)
(0.0666008 0.0225329 0)
(0.0628542 0.0227154 0)
(0.0591501 0.0228255 0)
(0.0554889 0.0228851 0)
(0.0518694 0.0229129 0)
(0.0482896 0.0229248 0)
(0.0447455 0.0229349 0)
(0.0412324 0.0229573 0)
(0.037743 0.0230061 0)
(0.0342669 0.0230984 0)
(0.0307902 0.0232534 0)
(0.027292 0.0234947 0)
(0.0237449 0.023846 0)
(0.0201081 0.0243269 0)
(0.0163238 0.0249446 0)
(0.0122797 0.0256714 0)
(0.00795377 0.0264177 0)
(0.00333656 0.0265078 0)
(-0.00530167 -0.0640757 0)
(0.0524178 -0.175196 0)
(0.105785 -0.149998 0)
(0.127177 -0.100987 0)
(0.131136 -0.0653863 0)
(0.129464 -0.0416652 0)
(0.125689 -0.0251935 0)
(0.121166 -0.0132662 0)
(0.116462 -0.00434243 0)
(0.111784 0.00249059 0)
(0.107206 0.00779387 0)
(0.102741 0.0119314 0)
(0.098381 0.0151573 0)
(0.0941127 0.0176555 0)
(0.089923 0.019572 0)
(0.0858038 0.0210256 0)
(0.0817497 0.0221119 0)
(0.0777576 0.0229088 0)
(0.0738264 0.0234791 0)
(0.069955 0.0238744 0)
(0.0661426 0.0241359 0)
(0.0623876 0.0242975 0)
(0.0586879 0.024387 0)
(0.0550414 0.0244268 0)
(0.0514447 0.024436 0)
(0.047894 0.0244308 0)
(0.0443831 0.0244262 0)
(0.0409047 0.0244369 0)
(0.0374487 0.0244783 0)
(0.0340011 0.0245691 0)
(0.0305446 0.0247308 0)
(0.0270547 0.0249897 0)
(0.0235013 0.0253734 0)
(0.0198431 0.0259073 0)
(0.016026 0.0266077 0)
(0.011956 0.027461 0)
(0.00764058 0.0284015 0)
(0.003134 0.0287493 0)
(0.0451922 -0.0757278 0)
(0.0974912 -0.201817 0)
(0.134934 -0.163961 0)
(0.146919 -0.104663 0)
(0.144687 -0.0649302 0)
(0.139291 -0.0398757 0)
(0.133118 -0.0230011 0)
(0.126904 -0.0109974 0)
(0.120949 -0.00211751 0)
(0.115315 0.00463432 0)
(0.109995 0.00985219 0)
(0.104948 0.0139126 0)
(0.100127 0.0170726 0)
(0.0954927 0.019516 0)
(0.0910128 0.0213864 0)
(0.086664 0.0227997 0)
(0.0824289 0.0238495 0)
(0.0782946 0.0246127 0)
(0.0742523 0.0251513 0)
(0.0702947 0.0255164 0)
(0.0664162 0.0257493 0)
(0.0626114 0.0258837 0)