/*--------------------------------*- C++ -*----------------------------------*\
  =========                 |
  \\      /  F ield         | OpenFOAM: The Open Source CFD Toolbox
   \\    /   O peration     | Website:  https://openfoam.org
    \\  /    A nd           | Version:  7
     \\/     M anipulation  |
\*---------------------------------------------------------------------------*/
FoamFile
{
    version     2.0;
    format      ascii;
    class       volScalarField;
    location    "0.3";
    object      alpha.water;
}
// * * * * * * * * * * * * * * * * * * * * * * * * * * * * * * * * * * * * * //

dimensions      [0 0 0 0 0 0 0];

internalField   nonuniform List<scalar> 
9072
(
1
1
1
1
1
1
1
1
1
1
1
1
1
1
1
1
1
1
1
1
1
1
1
1
1
1
1
1
1
1
1
1
1
1
1
1
1
1
1
1
1
0.967509
0.840907
0.840803
0.956443
0.996029
1
1
1
1
1
1
1
1
1
1
1
1
1
1
1
1
1
1
1
1
1
1
1
1
1
1
1
1
1
1
1
1
1
1
1
1
1
1
1
1
1
0.999987
0.867243
0.857262
0.99626
0.995887
1
1
1
1
1
1
1
1
1
1
1
1
1
1
1
1
1
1
1
1
1
1
1
1
1
1
1
1
1
1
1
1
1
1
1
1
1
1
1
1
1
1
0.987941
0.936916
0.996231
0.991859
1
1
1
1
1
1
1
1
1
1
1
1
1
1
1
1
1
1
1
1
1
1
1
1
1
1
1
1
1
1
1
1
1
1
1
1
1
1
1
1
1
1
1
0.999947
0.999488
0.991825
1
1
1
1
1
1
1
1
1
1
1
1
1
1
1
1
1
1
1
1
1
1
1
1
1
1
1
1
1
1
1
1
1
1
1
1
1
1
1
1
1
1
1
0.999997
1
0.994119
1
1
1
1
1
1
1
1
1
1
1
1
1
1
1
1
1
1
1
1
1
1
1
1
1
1
1
1
1
1
1
1
1
1
1
1
1
1
1
1
1
1
1
1
1
0.999766
1
1
1
1
1
1
1
1
1
1
1
1
1
1
1
1
1
1
1
1
1
1
1
1
1
1
1
1
1
1
1
1
1
1
1
1
1
1
1
1
1
1
1
1
1
0.997596
1
1
1
1
1
1
1
1
1
1
1
1
1
1
1
1
1
1
1
1
1
1
1
1
1
1
1
1
1
1
1
1
1
1
1
1
1
1
1
1
1
1
1
1
1
0.997186
1
1
1
1
1
1
1
1
1
1
1
1
1
1
1
1
1
1
1
1
1
1
1
1
1
1
1
1
1
1
1
1
1
1
1
1
1
1
1
1
1
1
1
1
1
0.997193
1
1
1
1
1
1
1
1
1
1
1
1
1
1
1
1
1
1
1
1
1
1
1
1
1
1
1
1
1
1
1
1
1
1
1
1
1
1
1
1
1
1
1
1
1
0.997222
1
1
1
1
1
1
1
1
1
1
1
1
1
1
1
1
1
1
1
1
1
1
1
1
1
1
1
1
1
1
1
1
1
1
1
1
1
1
1
1
1
1
1
1
1
0.997242
1
1
1
1
1
1
1
1
1
1
1
1
1
1
1
1
1
1
1
1
1
1
1
1
1
1
1
1
1
1
1
1
1
1
1
1
1
1
1
1
1
1
1
1
1
0.997266
1
1
1
1
1
1
1
1
1
1
1
1
1
1
1
1
1
1
1
1
1
1
1
1
1
1
1
1
1
1
1
1
1
1
1
1
1
1
1
1
1
1
1
1
1
0.997456
1
1
1
1
1
1
1
1
1
1
1
1
1
1
1
1
1
1
1
1
1
1
1
1
1
1
1
1
1
1
1
1
1
1
1
1
1
1
1
1
1
1
1
1
1
0.997835
1
1
1
1
1
1
1
1
1
1
1
1
1
1
1
1
1
1
1
1
1
1
1
1
1
1
1
1
1
1
1
1
1
1
1
1
1
1
1
1
1
1
1
1
1
0.997836
1
1
1
1
1
1
1
1
1
1
1
1
1
1
1
1
1
1
1
1
1
1
1
1
1
1
1
1
1
1
1
1
1
1
1
1
1
1
1
1
1
1
1
1
1
0.997816
4.71186e-34
3.42937e-33
5.92944e-33
2.67805e-33
3.14035e-34
3.50614e-35
1.84411e-36
3.51368e-38
1.35036e-40
2.35751e-43
1.20661e-43
7.18738e-44
4.02664e-44
1.26411e-44
1.73614e-45
6.99858e-47
1.51611e-48
5.15662e-50
2.37743e-51
1.09037e-52
4.32524e-54
1.47847e-55
4.51722e-57
1.25325e-58
3.15611e-60
7.25429e-62
1.49406e-63
2.70809e-65
4.2712e-67
5.78577e-69
6.59342e-71
6.14538e-73
4.51009e-75
2.46359e-77
9.14201e-80
1.95734e-82
1.64866e-85
2.87211e-86
1.82498e-32
1.51515e-31
2.62325e-31
2.47168e-31
6.65362e-32
8.90104e-33
5.47521e-34
1.05863e-35
5.81006e-38
1.11936e-42
6.76961e-42
1.45055e-41
7.75255e-42
2.03472e-42
2.28151e-43
8.4828e-45
1.77738e-46
5.81445e-48
2.53865e-49
1.09794e-50
4.12432e-52
1.34453e-53
3.9406e-55
1.05299e-56
2.55138e-58
5.57804e-60
1.08812e-61
1.86922e-63
2.79479e-65
3.58598e-67
3.87132e-69
3.42209e-71
2.38333e-73
1.23233e-75
4.26996e-78
8.02294e-81
5.10217e-84
3.34309e-86
1.13644e-30
9.41802e-30
1.87978e-29
1.9952e-29
5.94422e-30
8.43001e-31
5.25008e-32
1.09164e-33
8.75551e-36
6.64642e-40
1.4279e-39
1.62211e-39
4.87567e-40
8.99003e-41
7.68838e-42
2.85358e-43
7.61481e-45
2.5916e-46
1.01829e-47
3.87025e-49
1.30754e-50
3.92438e-52
1.06842e-53
2.65607e-55
5.99381e-57
1.22093e-58
2.22371e-60
3.57797e-62
5.02618e-64
6.07732e-66
6.20312e-68
5.20081e-70
3.44001e-72
1.67814e-74
5.22602e-77
7.54379e-80
2.08069e-83
2.01442e-84
3.92925e-29
3.81766e-28
8.87436e-28
1.03068e-27
3.41193e-28
5.09599e-29
3.26307e-30
7.44999e-32
8.2844e-34
3.72429e-36
3.04864e-37
1.03007e-37
2.2411e-38
3.11245e-39
2.22016e-40
7.989e-42
2.23813e-43
7.2528e-45
2.54345e-46
8.54877e-48
2.59509e-49
7.10819e-51
1.77863e-52
4.07526e-54
8.49871e-56
1.60361e-57
2.71428e-59
4.07375e-61
5.35634e-63
6.08074e-65
5.84214e-67
4.6142e-69
2.86081e-71
1.26804e-73
3.46252e-76
4.06247e-79
1.41801e-82
6.81914e-83
9.73201e-28
1.16236e-26
3.10872e-26
3.88438e-26
1.39489e-26
2.2025e-27
1.44156e-28
3.70799e-30
5.7359e-32
8.09739e-34
4.67441e-35
6.82193e-36
9.72136e-37
9.77844e-38
5.50572e-39
1.82557e-40
5.1245e-42
1.5579e-43
4.89092e-45
1.46085e-46
3.99021e-48
9.95717e-50
2.28401e-51
4.81263e-53
9.25811e-55
1.6157e-56
2.53724e-58
3.54497e-60
4.35144e-62
4.62091e-64
4.15415e-66
3.05599e-68
1.73052e-70
6.94917e-73
1.70739e-75
1.68521e-78
1.3287e-81
1.06005e-81
1.92697e-26
2.839e-25
8.61556e-25
1.14433e-24
4.38475e-25
7.43832e-26
4.99135e-27
1.61512e-28
3.82452e-30
1.05725e-31
5.70218e-33
4.54184e-34
3.88254e-35
2.70166e-36
1.22294e-37
3.78058e-39
1.02964e-40
2.88199e-42
8.07818e-44
2.14933e-45
5.28907e-47
1.20145e-48
2.52278e-50
4.8822e-52
8.65282e-54
1.39495e-55
2.02897e-57
2.63222e-59
3.00454e-61
2.96618e-63
2.46646e-65
1.66273e-67
8.57955e-70
3.13059e-72
6.83985e-75
6.85468e-78
1.15668e-80
1.05236e-80
3.18934e-25
5.80633e-24
2.00156e-23
2.83263e-23
1.19384e-23
2.26519e-24
1.76048e-25
8.02394e-27
2.69144e-28
1.10618e-29
5.34946e-31
2.70493e-32
1.39949e-33
6.63704e-35
2.46155e-36
7.20652e-38
1.89597e-39
4.90388e-41
1.23376e-42
2.93205e-44
6.49793e-46
1.34118e-47
2.57361e-49
4.56857e-51
7.44975e-53
1.10755e-54
1.48803e-56
1.78444e-58
1.88026e-60
1.70298e-62
1.29288e-64
7.88221e-67
3.67426e-69
1.22553e-71
2.46322e-74
3.15553e-77
8.73197e-80
7.92515e-80
4.52234e-24
1.06768e-22
4.35469e-22
6.75725e-22
3.53317e-22
8.04153e-23
9.20994e-24
5.47732e-25
2.96357e-26
1.5469e-27
6.27398e-29
1.96371e-30
5.76957e-32
1.70127e-33
4.76659e-35
1.2403e-36
3.07714e-38
7.50377e-40
1.74688e-41
3.79579e-43
7.66675e-45
1.4432e-46
2.53104e-48
4.11749e-50
6.16869e-52
8.43965e-54
1.04341e-55
1.1483e-57
1.10586e-59
9.12393e-62
6.25552e-64
3.4118e-66
1.47917e-68
4.59405e-71
1.0106e-73
1.70139e-76
5.81756e-79
5.05293e-79
5.97671e-23
2.04042e-21
1.04894e-20
1.84693e-20
1.39426e-20
3.54282e-21
5.9933e-22
5.08176e-23
3.82174e-24
1.75812e-25
7.13199e-27
1.99914e-28
4.3817e-30
8.24118e-32
1.41972e-33
2.51273e-35
4.93544e-37
1.05775e-38
2.24765e-40
4.52957e-42
8.52883e-44
1.49394e-45
2.42617e-47
3.64013e-49
5.01953e-51
6.31262e-53
7.15157e-55
7.18753e-57
6.27725e-59
4.65747e-61
2.94474e-63
1.5475e-65
6.26061e-68
1.98709e-70
5.09292e-73
1.04039e-75
3.59112e-78
2.91795e-78
8.94157e-22
4.30875e-20
2.60862e-19
4.95429e-19
5.09293e-19
1.16644e-19
2.28425e-20
2.0256e-21
1.24568e-22
4.94194e-24
2.19957e-25
7.4432e-27
1.97933e-28
4.28011e-30
7.2291e-32
9.91963e-34
1.33211e-35
2.01165e-37
3.26193e-39
5.46537e-41
9.11618e-43
1.46842e-44
2.22828e-46
3.12768e-48
4.01084e-50
4.66011e-52
4.84292e-54
4.43579e-56
3.58468e-58
2.5475e-60
1.52772e-62
7.48235e-65
3.06001e-67
1.03612e-69
2.83239e-72
6.57148e-75
2.1266e-77
1.61685e-77
1.48313e-20
7.84699e-19
4.75069e-18
8.92486e-18
8.06699e-18
1.7806e-18
2.4705e-19
1.82535e-20
9.19436e-22
3.69213e-23
1.7511e-24
6.93365e-26
2.27838e-27
6.36323e-29
1.42174e-30
2.51809e-32
3.95354e-34
5.73672e-36
7.61654e-38
9.64887e-40
1.22101e-41
1.58131e-43
2.06803e-45
2.63337e-47
3.13708e-49
3.39322e-51
3.29633e-53
2.87576e-55
2.23616e-57
1.49001e-59
8.39526e-62
4.11644e-64
1.70499e-66
5.94294e-69
1.71438e-71
4.09952e-74
1.23965e-76
9.56985e-77
2.26174e-19
9.85041e-18
5.00827e-17
8.4636e-17
4.94125e-17
9.3328e-18
7.82322e-19
5.09935e-20
2.71318e-21
1.39021e-22
6.55147e-24
2.66875e-25
9.4248e-27
2.9417e-28
7.90643e-30
1.81822e-31
3.92146e-33
7.401e-35
1.19187e-36
1.68298e-38
2.08614e-40
2.30073e-42
2.37793e-44
2.42824e-46
2.48507e-48
2.47818e-50
2.30883e-52
1.9448e-54
1.4307e-56
9.02482e-59
5.01963e-61
2.46052e-63
1.01109e-65
3.44081e-68
1.00668e-70
2.35077e-73
6.7967e-76
5.84634e-76
2.84455e-18
8.26561e-17
3.07957e-16
4.31417e-16
1.38529e-16
2.04527e-17
1.33655e-18
8.14681e-20
7.16235e-21
6.76994e-22
2.82861e-23
9.69881e-25
2.95264e-26
8.12747e-28
2.1982e-29
5.569e-31
1.34406e-32
2.87862e-34
5.85525e-36
1.07681e-37
1.73195e-39
2.31894e-41
2.59147e-43
2.4991e-45
2.1428e-47
1.86789e-49
1.63435e-51
1.30941e-53
9.11154e-56
5.56519e-58
3.07018e-60
1.4488e-62
5.702e-65
1.84341e-67
5.21549e-70
1.10716e-72
3.65231e-75
3.58119e-75
2.33112e-17
4.43123e-16
1.22523e-15
1.48521e-15
3.33039e-16
8.92527e-17
5.60663e-18
1.5716e-19
4.51082e-20
5.84845e-21
2.81736e-22
1.03789e-23
2.85808e-25
5.75785e-27
1.21185e-28
2.16176e-30
1.82689e-32
2.99135e-34
8.51147e-36
2.11217e-37
4.30401e-39
7.54624e-41
1.14378e-42
1.46963e-44
1.56539e-46
1.42306e-48
1.17932e-50
8.76905e-53
5.78086e-55
3.44039e-57
1.84372e-59
8.28075e-62
3.03465e-64
8.90991e-67
2.19144e-69
3.30272e-72
2.19441e-74
2.15703e-74
1.61119e-16
2.68972e-15
7.8357e-15
1.0417e-14
3.5008e-15
1.50115e-15
3.4804e-17
8.50047e-19
2.69211e-19
3.50782e-20
2.5517e-21
1.29882e-22
4.00888e-24
8.68988e-26
1.57504e-27
2.22395e-29
9.33608e-33
7.83394e-35
5.72034e-37
3.79081e-39
6.18933e-41
2.0843e-41
1.70091e-42
2.88107e-44
4.52548e-46
6.05749e-48
6.62769e-50
5.41302e-52
3.57438e-54
2.15722e-56
1.16712e-58
5.19696e-61
1.84135e-63
5.03367e-66
1.02197e-68
6.60543e-72
1.29771e-73
1.2728e-73
7.36686e-16
3.0657e-14
6.85074e-14
5.38916e-14
2.72127e-14
5.47058e-15
4.03709e-17
2.28399e-18
5.88936e-19
8.33609e-20
7.26597e-21
4.1563e-22
1.01383e-23
1.9278e-25
2.99731e-27
3.93287e-29
4.29597e-31
4.04087e-33
3.33688e-35
2.46745e-37
1.68141e-39
1.09527e-41
7.08492e-44
5.38903e-46
5.29757e-48
7.98225e-49
6.54057e-50
1.31951e-51
1.83076e-53
1.12566e-55
5.30481e-58
2.47538e-60
9.21701e-63
2.61414e-65
5.19725e-68
1.85431e-71
7.07066e-73
6.95153e-73
1
1
1
1
1
1
1
1
1
1
1
1
1
1
1
1
1
1
1
1
1
1
1
1
1
1
1
1
1
1
1
1
1
1
1
1
1
1
1
1
1
1
1
1
1
0.997835
1
1
1
1
1
1
1
1
1
1
1
1
1
1
1
1
1
1
1
1
1
1
1
1
1
1
1
1
1
1
1
1
1
1
1
1
1
1
1
1
1
1
1
1
1
0.998638
1
1
1
1
1
1
1
1
1
1
1
1
1
1
1
1
1
1
1
1
1
1
1
1
1
1
1
1
1
1
1
1
1
1
1
1
1
1
1
1
1
1
1
1
1
0.999986
1
1
1
1
1
1
1
1
1
1
1
1
1
1
1
1
1
1
1
1
1
1
1
1
1
1
1
1
1
1
1
1
1
1
1
1
1
1
1
1
1
1
1
1
1
1
1
1
1
1
1
1
1
1
1
1
1
1
1
1
1
1
1
1
1
1
1
1
1
1
1
1
1
1
1
1
1
1
1
1
1
1
1
1
1
1
1
1
1
1
1
1
1
1
1
1
1
1
1
1
1
1
1
1
1
1
1
1
1
1
1
1
1
1
1
1
1
1
1
1
1
1
1
1
1
1
1
1
1
1
1
1
1
1
1
1
1
1
1
1
1
1
1
1
1
1
1
1
1
1
1
1
1
1
1
1
1
1
1
1
1
1
1
1
1
1
1
1
1
1
1
1
1
1
1
1
1
1
1
1
1
1
1
1
1
1
1
1
1
1
1
1
1
1
1
1
1
1
1
1
1
1
1
1
1
1
1
0.999999
0.999999
0.999999
0.999999
0.999999
0.999999
1
1
1
1
1
1
1
1
1
1
1
1
1
1
1
1
1
1
1
1
1
0.999999
0.999999
0.999999
0.999999
0.999999
0.999999
0.999999
0.999999
0.999999
0.999999
0.999999
0.999998
0.999998
0.999998
0.999998
0.999997
0.999995
0.999994
0.999992
0.999989
0.999982
0.999972
0.99997
0.999974
0.999988
0.999989
0.999989
0.999988
0.999986
0.999986
0.999992
0.999998
1
1
1
1
1
1
1
1
1
1
0.999999
0.999997
0.999994
0.99999
0.999987
0.999986
0.999985
0.999984
0.999983
0.999983
0.999982
0.999981
0.999979
0.999977
0.999974
0.999971
0.999969
0.999963
0.999954
0.999939
0.999911
0.999871
0.999819
0.999745
0.999601
0.996957
0.994786
0.997448
0.99955
0.999634
0.999344
0.99006
0.963406
0.924921
0.891292
0.898527
0.916555
0.948277
1
1
1
1
1
1
1
1
0.999979
0.999946
0.999884
0.999803
0.999753
0.999724
0.999705
0.999693
0.999683
0.999672
0.999659
0.999641
0.999617
0.999582
0.999529
0.999462
0.999383
0.999108
0.996361
0.9871
0.967387
0.938029
0.900655
0.841262
0.717187
0.525739
0.486234
0.533347
0.618129
0.643362
0.587177
0.449446
0.306546
0.204415
0.14755
0.168764
0.203488
0.203515
0.223377
0.312615
0.497132
0.723589
0.904076
1
1
1
0.999545
0.989572
0.944701
0.883645
0.849392
0.833341
0.825831
0.822749
0.821153
0.819034
0.81437
0.806833
0.795115
0.776436
0.748198
0.710308
0.663682
0.60699
0.523295
0.429487
0.334903
0.254243
0.187683
0.116222
0.0303524
2.7864e-25
2.48943e-12
8.49174e-12
0.00892915
0.00907442
-8.61822e-12
-7.23236e-15
-7.41519e-18
-6.82771e-21
-3.13713e-24
-4.75704e-19
-3.25088e-13
-6.47223e-09
3.19528e-06
2.28583e-05
0.00426984
0.0401607
0.12367
0.265433
0.47007
0.704376
0.636847
0.461737
0.283833
0.173544
0.134028
0.119082
0.112561
0.109901
0.108619
0.106918
0.103168
0.0972953
0.0886818
0.0760273
0.0590497
0.0397873
0.0204937
0.000781631
-3.45989e-14
-5.41837e-18
-1.06159e-21
-1.4135e-25
1.72771e-25
0
-1.68736e-28
-1.09835e-12
3.36932e-28
0
-1.53082e-11
-5.17248e-10
-1.13654e-09
-1.47994e-09
-1.37736e-09
-1.03016e-09
-6.55974e-10
-3.63949e-10
-1.76618e-10
-1.87062e-10
-1.88176e-07
-2.08886e-07
1.11541e-06
1.573e-05
5.55937e-05
0.000144268
0.00220617
0.0404326
4.58896e-05
-3.06192e-17
3.35497e-22
-5.77896e-29
4.31963e-26
6.74943e-28
-1.02678e-08
-8.74512e-08
-1.75136e-07
-2.3265e-07
-2.06744e-07
-1.25877e-07
-6.00261e-08
-2.49837e-08
-1.05045e-08
-5.17517e-09
-3.07642e-09
-2.02931e-09
-1.38918e-09
-9.3397e-10
-6.30539e-10
-4.45828e-10
-3.33462e-10
-2.33372e-10
-1.16845e-10
-1.99296e-11
-9.37799e-13
8.49174e-12
0
-6.89084e-10
-1.89818e-09
-2.48403e-09
-2.43677e-09
-2.01402e-09
-1.47081e-09
-9.70543e-10
-5.83787e-10
-3.20025e-10
-4.34405e-11
-3.58689e-09
8.13564e-09
2.12657e-07
-1.79302e-06
1.18736e-06
8.3944e-06
4.35454e-05
-8.08049e-14
-3.73097e-14
-3.84412e-15
-2.10061e-15
-1.19135e-14
-2.47031e-14
-3.9566e-14
-1.30381e-13
-1.34172e-09
-1.88912e-07
-2.99514e-07
-2.17908e-07
-1.10412e-07
-4.76507e-08
-2.08683e-08
-1.07549e-08
-6.61612e-09
-4.42498e-09
-2.98208e-09
-1.97451e-09
-1.30585e-09
-9.02044e-10
-6.58862e-10
-4.49944e-10
-2.06815e-10
-3.5746e-14
3.04246e-12
5.51335e-09
5.16499e-09
1.24392e-09
-8.96715e-11
-1.28407e-09
-1.70081e-09
-1.65008e-09
-1.36032e-09
-9.97693e-10
-6.61814e-10
-3.94526e-10
-2.00786e-10
-1.4146e-11
1.44019e-10
3.38581e-09
1.86819e-08
9.21615e-08
2.83066e-07
1.55933e-06
-3.75783e-15
-3.89809e-15
-9.73685e-16
-3.55955e-15
-2.12698e-14
-4.28316e-14
-6.81639e-14
-2.08137e-13
-4.6886e-10
-1.02887e-07
-1.68475e-07
-1.28909e-07
-7.00385e-08
-3.38964e-08
-1.77335e-08
-1.10269e-08
-7.68408e-09
-5.46092e-09
-3.77623e-09
-2.52992e-09
-1.69028e-09
-1.18488e-09
-8.79089e-10
-5.96199e-10
-2.30019e-10
-1.30505e-14
1.0949e-08
4.42552e-08
4.60857e-08
2.04413e-08
6.02839e-10
2.15982e-26
-3.67124e-10
-6.3043e-10
-6.37979e-10
-5.05496e-10
-3.29213e-10
-1.59803e-10
-1.57605e-11
9.37218e-11
1.23196e-10
3.75353e-10
1.17032e-09
3.51827e-09
1.14431e-08
6.98094e-08
-1.28355e-15
-2.18473e-15
-6.2519e-16
-4.3051e-15
-2.49127e-14
-5.01942e-14
-8.20721e-14
-2.48411e-13
-1.19991e-12
-4.63944e-12
-9.30991e-10
-3.08288e-09
-5.67748e-09
-7.64164e-09
-8.37261e-09
-7.89944e-09
-6.63942e-09
-5.08881e-09
-3.63039e-09
-2.47852e-09
-1.70066e-09
-1.24548e-09
-9.66677e-10
-6.55598e-10
-1.92155e-10
4.73408e-09
4.79836e-08
4.88857e-08
4.88762e-08
3.593e-08
2.36839e-09
1.20841e-43
-2.12529e-11
-2.02059e-10
-2.23439e-10
-1.38133e-10
-2.1699e-11
8.78851e-11
3.38561e-10
6.34986e-10
9.32501e-10
9.47356e-10
1.04902e-09
1.44479e-09
2.00873e-09
3.4624e-09
8.45426e-16
-3.6886e-16
-3.29613e-16
-4.16481e-15
-2.42695e-14
-4.98079e-14
-8.63697e-14
-2.76901e-13
-1.31381e-12
-4.95513e-12
-5.73719e-10
-2.03025e-09
-3.95238e-09
-5.55832e-09
-6.29373e-09
-6.07565e-09
-5.18002e-09
-4.00207e-09
-2.87497e-09
-1.99933e-09
-1.44252e-09
-1.14766e-09
-9.58739e-10
-6.56028e-10
-1.33381e-10
2.82771e-08
4.85012e-08
4.88422e-08
4.74833e-08
1.26058e-08
7.33563e-11
1.71583e-11
1.21312e-11
1.69795e-11
4.2023e-11
1.25515e-10
3.06451e-10
5.71613e-10
8.11422e-10
1.04092e-09
1.35067e-09
1.6791e-09
1.70261e-09
1.72664e-09
1.78944e-09
1.60286e-09
1.13312e-15
-2.24145e-17
-2.26586e-16
-3.6412e-15
-2.17503e-14
-4.5605e-14
-8.6479e-14
-3.06554e-13
-1.43736e-12
-5.24474e-12
-3.10395e-10
-1.17373e-09
-2.41651e-09
-3.53947e-09
-4.11502e-09
-4.02957e-09
-3.45262e-09
-2.66885e-09
-1.9321e-09
-1.39981e-09
-1.11806e-09
-1.01233e-09
-9.21293e-10
-6.43574e-10
-1.07551e-10
1.87968e-08
4.68805e-08
3.75165e-08
4.82631e-09
3.13605e-11
7.12122e-11
9.85788e-11
1.17775e-10
1.64447e-10
2.68727e-10
4.24947e-10
6.03433e-10
7.77072e-10
9.47261e-10
1.16816e-09
1.49095e-09
1.80207e-09
1.87151e-09
1.87063e-09
1.85507e-09
1.56738e-09
7.72827e-16
1.21839e-17
-1.66218e-16
-3.01112e-15
-1.85784e-14
-3.98176e-14
-8.55248e-14
-3.4012e-13
-1.56903e-12
-5.49933e-12
-1.57913e-10
-6.42927e-10
-1.39428e-09
-2.10008e-09
-2.46566e-09
-2.40696e-09
-2.04081e-09
-1.56603e-09
-1.15918e-09
-9.26057e-10
-8.79974e-10
-9.21133e-10
-8.91676e-10
-6.4392e-10
-1.87481e-10
1.18339e-09
3.85659e-09
4.56726e-31
1.87673e-28
2.75127e-11
7.27351e-11
1.26235e-10
1.90645e-10
2.71803e-10
3.72759e-10
4.99962e-10
6.39198e-10
7.82979e-10
9.32024e-10
1.09716e-09
1.29327e-09
1.49015e-09
1.60282e-09
1.62812e-09
1.61774e-09
1.53679e-09
1.37472e-16
1.2953e-18
-1.20177e-16
-2.38757e-15
-1.52188e-14
-3.36709e-14
-8.50553e-14
-3.74193e-13
-1.67964e-12
-5.62496e-12
-8.63943e-11
-3.69442e-10
-8.17345e-10
-1.22468e-09
-1.40828e-09
-1.33497e-09
-1.10005e-09
-8.40899e-10
-6.71602e-10
-6.51866e-10
-7.6146e-10
-8.77722e-10
-8.61123e-10
-6.47742e-10
-3.67495e-10
-1.80715e-10
-8.25892e-11
-3.2373e-11
-4.9677e-12
3.0891e-11
8.78674e-11
1.429e-10
2.072e-10
2.83614e-10
3.6804e-10
4.38276e-10
4.95796e-10
5.49409e-10
6.15495e-10
7.03975e-10
7.95785e-10
8.50938e-10
8.69476e-10
8.64146e-10
8.05673e-10
7.26201e-10
1.59145e-17
-6.96305e-18
-8.75401e-17
-1.81883e-15
-1.19403e-14
-2.79877e-14
-8.53776e-14
-4.01356e-13
-1.73071e-12
-5.51626e-12
-5.51672e-11
-2.31232e-10
-4.94073e-10
-7.05265e-10
-7.67364e-10
-6.88716e-10
-5.48211e-10
-4.36907e-10
-4.23191e-10
-5.31866e-10
-7.15444e-10
-8.40272e-10
-8.00597e-10
-6.12588e-10
-3.91166e-10
-2.21363e-10
-1.10254e-10
-4.25243e-11
-2.11072e-12
4.52292e-11
9.57308e-11
1.40563e-10
1.76111e-10
2.05391e-10
2.3028e-10
2.54306e-10
2.76246e-10
2.96018e-10
3.17813e-10
3.34988e-10
3.37116e-10
3.32872e-10
3.13789e-10
2.76928e-10
2.22068e-10
1.87621e-10
1.50165e-18
-6.98996e-18
-6.40388e-17
-1.33264e-15
-8.98633e-15
-2.32762e-14
-8.56461e-14
-4.12621e-13
-1.69006e-12
-5.11047e-12
-3.7991e-11
-1.4707e-10
-2.90854e-10
-3.83028e-10
-3.84883e-10
-3.23919e-10
-2.5834e-10
-2.4444e-10
-3.20367e-10
-4.86917e-10
-6.7888e-10
-7.68675e-10
-6.93143e-10
-5.10115e-10
-3.20775e-10
-1.8232e-10
-8.84061e-11
-2.93059e-11
6.7395e-12
5.07959e-11
7.32314e-11
8.55395e-11
9.54293e-11
1.05758e-10
1.14593e-10
1.21598e-10
1.2174e-10
1.19971e-10
1.155e-10
1.08799e-10
9.93955e-11
8.5922e-11
6.88071e-11
5.17032e-11
3.59327e-11
3.10193e-11
8.08744e-20
-4.62167e-18
-4.78411e-17
-9.45747e-16
-6.54463e-15
-1.96479e-14
-8.42239e-14
-4.00668e-13
-1.54491e-12
-4.41906e-12
-2.52097e-11
-8.73977e-11
-1.56251e-10
-1.86289e-10
-1.71215e-10
-1.38827e-10
-1.26526e-10
-1.67547e-10
-2.81543e-10
-4.53451e-10
-6.11189e-10
-6.49645e-10
-5.46709e-10
-3.78305e-10
-2.2719e-10
-1.23999e-10
-5.39822e-11
-1.21758e-11
1.46629e-11
3.01245e-11
3.63088e-11
4.02812e-11
4.30535e-11
4.48293e-11
4.42305e-11
4.23259e-11
3.89916e-11
3.453e-11
2.9586e-11
2.45045e-11
1.93488e-11
1.41265e-11
9.6116e-12
6.37241e-12
6.69541e-12
8.38554e-12
-1.69045e-20
-2.84968e-18
-3.72285e-17
-6.60293e-16
-4.68897e-15
-1.6837e-14
-7.94401e-14
-3.63024e-13
-1.30869e-12
-3.52997e-12
-1.54518e-11
-4.6793e-11
-7.42173e-11
-7.91503e-11
-6.75361e-11
-5.92456e-11
-7.6395e-11
-1.38828e-10
-2.5458e-10
-3.98985e-10
-5.04175e-10
-4.97492e-10
-3.87667e-10
-2.49285e-10
-1.40065e-10
-6.9748e-11
-2.43473e-11
-1.44948e-12
9.93453e-12
1.38362e-11
1.53144e-11
1.52578e-11
1.47295e-11
1.37305e-11
1.24327e-11
1.07859e-11
8.87116e-12
6.93111e-12
5.17802e-12
3.69999e-12
2.50216e-12
1.38599e-12
1.30968e-12
1.8923e-12
3.51694e-12
6.81901e-12
-3.12589e-20
-1.92345e-18
-3.02124e-17
-4.63213e-16
-3.36725e-15
-1.43897e-14
-7.04629e-14
-3.03705e-13
-1.01799e-12
-2.57981e-12
-8.73103e-12
-2.2449e-11
-3.10087e-11
-2.96514e-11
-2.56044e-11
-3.08041e-11
-5.841e-11
-1.20391e-10
-2.16855e-10
-3.19695e-10
-3.7439e-10
-3.41012e-10
-2.44437e-10
-1.44168e-10
-7.36196e-11
-3.10861e-11
-7.22685e-12
1.93853e-12
4.31791e-12
4.91798e-12
4.72628e-12
4.23342e-12
3.6689e-12
3.10706e-12
2.52759e-12
1.94895e-12
1.41309e-12
9.62405e-13
6.1897e-13
3.77926e-13
1.90482e-13
2.13069e-13
4.94892e-13
1.69747e-12
5.15989e-12
1.1404e-11
-3.42802e-20
-1.47597e-18
-2.5069e-17
-3.31708e-16
-2.44592e-15
-1.19239e-14
-5.78249e-14
-2.32312e-13
-7.20561e-13
-1.70795e-12
-4.54987e-12
-9.66943e-12
-1.15345e-11
-1.04401e-11
-1.13676e-11
-2.11316e-11
-4.78752e-11
-9.81276e-11
-1.67101e-10
-2.29264e-10
-2.47793e-10
-2.07429e-10
-1.35497e-10
-7.17663e-11
-3.1853e-11
-1.03603e-11
-1.06266e-12
1.07751e-12
1.26356e-12
1.24631e-12
1.09503e-12
8.64221e-13
6.73331e-13
5.117e-13
3.68976e-13
2.49858e-13
1.5813e-13
9.3294e-14
5.21396e-14
2.35841e-14
2.68059e-14
9.90832e-14
5.9814e-13
2.62154e-12
7.36436e-12
1.63929e-11
-3.29202e-20
-1.21666e-18
-2.06464e-17
-2.41728e-16
-1.77861e-15
-9.30945e-15
-4.32985e-14
-1.60835e-13
-4.5954e-13
-1.01335e-12
-2.1858e-12
-3.78993e-12
-4.0191e-12
-4.06451e-12
-6.75175e-12
-1.60624e-11
-3.68713e-11
-7.17904e-11
-1.14355e-10
-1.45679e-10
-1.4527e-10
-1.1141e-10
-6.55635e-11
-3.0258e-11
-1.09641e-11
-2.32874e-12
1.52525e-13
3.09301e-13
2.78548e-13
2.44424e-13
1.83638e-13
1.31053e-13
9.21405e-14
6.16735e-14
3.89597e-14
2.31998e-14
1.29395e-14
6.75181e-15
3.25408e-15
2.46784e-15
1.11511e-14
1.14853e-13
7.97795e-13
3.45406e-12
9.53712e-12
2.74639e-11
-2.93809e-20
-1.00332e-18
-1.63918e-17
-1.74914e-16
-1.25916e-15
-6.68227e-15
-2.91955e-14
-9.96399e-14
-2.6111e-13
-5.32517e-13
-9.63617e-13
-1.39054e-12
-1.45858e-12
-2.02537e-12
-4.61473e-12
-1.15204e-11
-2.52716e-11
-4.61756e-11
-6.86707e-11
-8.13898e-11
-7.5173e-11
-5.28937e-11
-2.78367e-11
-1.08401e-11
-2.95255e-12
-2.59832e-13
7.41855e-14
6.00745e-14
4.60283e-14
3.51378e-14
2.3705e-14
1.53214e-14
9.55443e-15
5.64345e-15
3.16892e-15
1.69374e-15
8.5667e-16
4.18442e-16
2.47166e-16
7.75172e-16
1.08396e-14
1.3815e-13
1.07473e-12
4.87847e-12
1.49279e-11
7.13547e-11
-2.45071e-20
-7.89307e-19
-1.22321e-17
-1.21263e-16
-8.38016e-16
-4.31723e-15
-1.74772e-14
-5.45084e-14
-1.30506e-13
-2.44909e-13
-3.86518e-13
-4.97666e-13
-6.09531e-13
-1.18192e-12
-3.01634e-12
-7.29329e-12
-1.50424e-11
-2.57188e-11
-3.57758e-11
-3.9682e-11
-3.42681e-11
-2.23683e-11
-1.06197e-11
-3.458e-12
-6.51985e-13
2.08548e-14
1.61286e-14
8.40629e-15
5.90299e-15
4.02069e-15
2.45125e-15
1.43386e-15
8.0567e-16
4.30165e-16
2.20726e-16
1.08949e-16
5.27136e-17
2.88163e-17
5.94617e-17
7.00292e-16
1.22435e-14
1.77387e-13
1.5533e-12
7.33073e-12
2.60226e-11
1.52149e-10
-1.89325e-20
-5.75144e-19
-8.38474e-18
-7.7656e-17
-5.06465e-16
-2.45811e-15
-9.13106e-15
-2.59196e-14
-5.65938e-14
-9.76367e-14
-1.40411e-13
-1.8099e-13
-2.86778e-13
-6.76327e-13
-1.7312e-12
-3.95161e-12
-7.62493e-12
-1.22064e-11
-1.59569e-11
-1.67171e-11
-1.36957e-11
-8.47641e-12
-3.75517e-12
-1.07708e-12
-1.48149e-13
1.01981e-14
1.91791e-15
9.48624e-16
6.21138e-16
3.79418e-16
2.14521e-16
1.16434e-16
6.0517e-17
2.99936e-17
1.43393e-17
6.73443e-18
3.47927e-18
4.8274e-18
4.78738e-17
8.2244e-16
1.48529e-14
2.34339e-13
2.10359e-12
1.00182e-11
4.0363e-11
2.18775e-10
-1.33212e-20
-3.7889e-19
-5.15164e-18
-4.43437e-17
-2.68568e-16
-1.20287e-15
-4.07149e-15
-1.05097e-14
-2.10046e-14
-3.36671e-14
-4.67147e-14
-6.77215e-14
-1.35356e-13
-3.41997e-13
-8.38015e-13
-1.78677e-12
-3.21916e-12
-4.83699e-12
-5.98163e-12
-5.98377e-12
-4.72611e-12
-2.84218e-12
-1.2264e-12
-3.3876e-13
-4.36474e-14
4.99279e-16
1.75932e-16
8.83102e-17
5.53187e-17
3.14199e-17
1.69921e-17
8.71274e-18
4.25305e-18
1.9712e-18
8.85085e-19
4.31974e-19
4.03098e-19
3e-18
5.2399e-17
9.26389e-16
1.74944e-14
2.83633e-13
2.55439e-12
1.22542e-11
5.39986e-11
2.52177e-10
-7.94369e-21
-2.0444e-19
-2.59308e-18
-2.07883e-17
-1.1662e-16
-4.80309e-16
-1.48856e-15
-3.53303e-15
-6.58095e-15
-1.0119e-14
-1.451e-14
-2.46296e-14
-5.60633e-14
-1.40761e-13
-3.25086e-13
-6.48822e-13
-1.09884e-12
-1.56301e-12
-1.84518e-12
-1.77812e-12
-1.36525e-12
-8.04753e-13
-3.42376e-13
-9.33294e-14
-1.1843e-14
8.64479e-17
1.28735e-17
7.15215e-18
4.32958e-18
2.3759e-18
1.24512e-18
6.0436e-19
2.75845e-19
1.19089e-19
5.36885e-20
3.81395e-20
1.70068e-19
2.99805e-18
5.46064e-17
9.79458e-16
1.89944e-14
3.18734e-13
2.87957e-12
1.38695e-11
6.46326e-11
2.69346e-10
-3.49702e-21
-8.35749e-20
-9.94097e-19
-7.45461e-18
-3.89719e-17
-1.49316e-16
-4.31765e-16
-9.65347e-16
-1.7248e-15
-2.63647e-15
-4.03402e-15
-7.69103e-15
-1.8297e-14
-4.44177e-14
-9.69596e-14
-1.82688e-13
-2.93199e-13
-3.97364e-13
-4.49835e-13
-4.18619e-13
-3.12664e-13
-1.80526e-13
-7.56409e-14
-2.03436e-14
-2.53331e-15
1.27481e-17
1.06271e-18
5.45733e-19
2.99409e-19
1.64266e-19
8.27238e-20
3.76861e-20
1.59534e-20
6.67596e-21
3.92446e-21
8.7703e-21
1.4768e-19
2.9003e-18
5.16461e-17
9.54609e-16
1.94073e-14
3.36069e-13
3.043e-12
1.47873e-11
7.33721e-11
2.79054e-10
-1.1003e-21
-2.4746e-20
-2.77915e-19
-1.96588e-18
-9.69562e-18
-3.51569e-17
-9.69263e-17
-2.09086e-16
-3.66792e-16
-5.66778e-16
-9.14399e-16
-1.84168e-15
-4.36713e-15
-1.01707e-14
-2.11218e-14
-3.78815e-14
-5.79804e-14
-7.51355e-14
-8.15912e-14
-7.31071e-14
-5.27978e-14
-2.96066e-14
-1.20953e-14
-3.18031e-15
-3.8799e-16
1.41585e-18
1.05584e-19
4.20419e-20
1.87668e-20
1.00585e-20
4.84641e-21
2.0553e-21
8.22484e-22
4.15266e-22
4.45737e-22
5.48199e-21
1.19531e-19
2.25658e-18
4.18525e-17
7.9388e-16
1.71987e-14
3.1103e-13
2.85519e-12
1.50102e-11
7.85431e-11
2.82834e-10
-2.28652e-22
-4.89718e-21
-5.25306e-20
-3.55651e-19
-1.68548e-18
-5.91101e-18
-1.5897e-17
-3.376e-17
-5.87966e-17
-9.09454e-17
-1.47659e-16
-2.95234e-16
-6.78414e-16
-1.51661e-15
-3.0376e-15
-5.2677e-15
-7.78788e-15
-9.73637e-15
-1.01836e-14
-8.77204e-15
-6.08157e-15
-3.26748e-15
-1.27398e-15
-3.1741e-16
-3.60473e-17
1.33737e-19
1.04062e-20
3.20089e-21
1.07824e-21
5.34102e-22
2.47226e-22
9.85059e-23
4.26801e-23
3.10039e-23
1.64653e-22
3.65334e-21
7.36838e-20
1.42467e-18
2.65021e-17
5.10986e-16
1.17102e-14
2.29982e-13
2.23382e-12
1.23523e-11
7.14021e-11
2.69738e-10
-2.63579e-23
-5.48904e-22
-5.75408e-21
-3.82829e-20
-1.79451e-19
-6.26575e-19
-1.68511e-18
-3.57402e-18
-6.13846e-18
-9.05765e-18
-1.33026e-17
-2.36021e-17
-4.96744e-17
-1.04795e-16
-2.12055e-16
-3.7762e-16
-5.68101e-16
-7.1947e-16
-7.56167e-16
-6.50942e-16
-4.50982e-16
-2.42366e-16
-9.41793e-17
-2.32855e-17
-2.5987e-18
9.05082e-21
7.32879e-22
2.02369e-22
5.51335e-23
2.50459e-23
1.10694e-23
4.44733e-24
2.64469e-24
5.23362e-24
1.01411e-22
2.17158e-21
4.43013e-20
8.73305e-19
1.63893e-17
3.11616e-16
7.03766e-15
1.47924e-13
1.61355e-12
9.77437e-12
5.97992e-11
2.48843e-10
-9.95703e-25
-2.18104e-23
-2.40684e-22
-1.69003e-21
-8.35586e-21
-3.0596e-20
-8.51211e-20
-1.8164e-19
-2.95164e-19
-3.50522e-19
-2.53566e-19
1.0901e-20
9.36658e-19
4.20231e-18
6.63263e-18
7.25782e-18
6.68802e-18
3.39894e-18
1.47422e-18
4.70191e-19
-2.1796e-19
-4.11586e-19
-1.13308e-19
1.81202e-20
1.73839e-20
2.73878e-22
2.71704e-23
7.94305e-24
2.39981e-24
1.0718e-24
4.51697e-25
2.27231e-25
2.24532e-25
2.76688e-24
6.20463e-23
1.32915e-21
2.76571e-20
5.53516e-19
1.05323e-17
1.96235e-16
4.07782e-15
8.6941e-14
1.12962e-12
8.08751e-12
5.18801e-11
2.35654e-10
0
-5.83299e-49
-3.94382e-46
-3.1157e-43
-2.15414e-40
-2.34741e-37
1.90858e-28
9.88293e-27
3.86265e-26
4.63746e-26
5.98512e-43
2.49028e-28
1.57468e-24
1.52595e-21
3.05517e-20
1.25414e-19
1.30251e-20
1.81524e-20
1.18286e-19
2.85579e-19
8.47162e-20
1.63481e-21
1.56506e-22
2.45651e-23
2.47819e-23
7.89706e-25
3.78267e-25
1.8072e-25
9.90515e-26
4.29108e-26
1.86518e-26
1.28627e-26
6.78621e-26
1.54403e-24
3.47826e-23
7.53698e-22
1.58369e-20
3.20864e-19
6.2073e-18
1.15191e-16
2.19927e-15
4.47835e-14
7.17008e-13
6.87307e-12
5.10523e-11
2.36658e-10
-4.15966e-60
1.2836e-45
3.65833e-43
6.99361e-41
9.33205e-39
-1.02087e-35
2.22814e-31
9.4134e-29
1.49012e-27
8.07126e-27
5.85182e-28
1.93598e-28
1.29877e-26
2.23303e-25
1.18916e-24
3.13251e-24
6.56693e-24
1.61319e-23
3.56679e-23
4.15692e-23
5.87272e-25
3.21215e-25
1.52407e-25
4.88878e-26
1.61634e-26
8.72203e-27
7.85735e-27
7.54084e-27
4.43807e-27
1.53855e-27
8.22207e-28
1.64383e-27
2.89425e-26
6.88109e-25
1.53125e-23
3.31034e-22
6.91734e-21
1.39642e-19
2.71417e-18
5.04733e-17
9.09917e-16
1.71269e-14
3.34926e-13
4.80927e-12
4.26526e-11
2.12459e-10
-1.35405e-48
-4.98452e-49
-5.3392e-46
-1.95384e-43
-7.18853e-40
-2.50074e-37
6.60658e-37
1.04451e-32
1.07224e-30
8.99701e-30
4.35435e-29
1.24371e-28
6.2608e-29
1.64458e-28
8.24932e-28
3.07784e-27
9.25811e-27
2.03171e-26
3.19676e-26
3.89971e-26
4.10356e-26
2.23149e-26
6.81192e-27
2.1267e-27
6.69737e-28
3.37785e-28
2.59778e-28
1.9461e-28
9.80504e-29
4.94949e-29
5.62843e-29
4.08671e-28
1.02369e-26
2.32523e-25
5.14705e-24
1.09943e-22
2.26495e-21
4.50166e-20
8.62153e-19
1.58634e-17
2.80678e-16
4.9658e-15
9.42109e-14
1.61137e-12
1.99919e-11
1.38002e-10
-6.03203e-47
-1.38179e-46
-9.04886e-49
-1.79886e-46
-1.55806e-44
1.62156e-43
3.79795e-41
4.03442e-39
3.33358e-37
1.63601e-34
7.76652e-32
8.88448e-31
3.21944e-30
6.93308e-30
1.63746e-29
8.96041e-29
4.74979e-28
1.35482e-27
2.26555e-27
2.65365e-27
2.54123e-27
1.19792e-27
3.50736e-28
9.98868e-29
3.04521e-29
1.13072e-29
5.86437e-30
3.52679e-30
2.14866e-30
1.34366e-30
4.93798e-30
9.65236e-29
2.21861e-27
5.01809e-26
1.09911e-24
2.35586e-23
4.85682e-22
9.60711e-21
1.81916e-19
3.28393e-18
5.55541e-17
8.89715e-16
1.69239e-14
4.36789e-13
9.19928e-12
6.91114e-11
-1.58423e-64
-8.67488e-61
6.62063e-52
1.81366e-49
3.37855e-47
4.23232e-45
8.81435e-43
7.7911e-41
5.45362e-39
3.23457e-36
1.8252e-33
2.35868e-32
1.00328e-31
2.97898e-31
1.16897e-30
7.22234e-30
3.09641e-29
7.36169e-29
1.11026e-28
1.25067e-28
1.13295e-28
4.93155e-29
1.49671e-29
4.47546e-30
1.29832e-30
3.98905e-31
1.59162e-31
8.57676e-32
5.15108e-32
1.00883e-31
1.20941e-30
2.78883e-29
6.4798e-28
1.45876e-26
3.16862e-25
6.61429e-24
1.3218e-22
2.51756e-21
4.54834e-20
7.7556e-19
1.24177e-17
1.80231e-16
2.52477e-15
5.43793e-14
2.2547e-12
1.84298e-11
7.45235e-59
7.3051e-57
-4.31445e-54
1.0758e-51
-6.12131e-49
-2.41047e-46
7.67177e-45
6.44055e-43
4.45496e-41
7.71982e-39
1.09624e-35
4.48805e-34
3.27299e-33
1.38357e-32
6.45754e-32
3.7286e-31
1.5003e-30
3.47436e-30
5.15815e-30
5.76456e-30
5.09259e-30
2.13113e-30
6.18085e-31
1.69462e-31
4.33196e-32
1.1839e-32
4.62991e-33
2.52474e-33
1.77299e-33
1.24389e-32
2.74305e-31
6.36529e-30
1.4351e-28
3.12407e-27
6.54619e-26
1.3158e-24
2.52736e-23
4.62017e-22
8.00451e-21
1.30863e-19
2.00973e-18
2.82906e-17