/*--------------------------------*- C++ -*----------------------------------*\
  =========                 |
  \\      /  F ield         | OpenFOAM: The Open Source CFD Toolbox
   \\    /   O peration     | Website:  https://openfoam.org
    \\  /    A nd           | Version:  7
     \\/     M anipulation  |
\*---------------------------------------------------------------------------*/
FoamFile
{
    version     2.0;
    format      ascii;
    class       surfaceScalarField;
    location    "0.3";
    object      alphaPhi0.water;
}
// * * * * * * * * * * * * * * * * * * * * * * * * * * * * * * * * * * * * * //

dimensions      [0 3 -1 0 0 0 0];

internalField   nonuniform List<scalar> 
17936
(
-1.84806e-06
1.84806e-06
-1.89082e-06
4.27666e-08
-8.22747e-07
-1.06807e-06
6.30719e-07
-1.45347e-06
2.20683e-06
-1.57611e-06
3.76817e-06
-1.56134e-06
5.26046e-06
-1.4923e-06
6.67075e-06
-1.41028e-06
8.00356e-06
-1.33282e-06
9.27069e-06
-1.26712e-06
1.04861e-05
-1.21544e-06
1.16635e-05
-1.17738e-06
1.28149e-05
-1.15135e-06
1.39502e-05
-1.13533e-06
1.50774e-05
-1.12726e-06
1.62026e-05
-1.12513e-06
1.73296e-05
-1.12704e-06
1.84608e-05
-1.13119e-06
1.95966e-05
-1.13581e-06
2.07357e-05
-1.13912e-06
2.1875e-05
-1.1393e-06
2.30094e-05
-1.13435e-06
2.41315e-05
-1.12211e-06
2.52317e-05
-1.10019e-06
2.62976e-05
-1.0659e-06
2.73138e-05
-1.01624e-06
2.82616e-05
-9.47821e-07
2.91184e-05
-8.56751e-07
2.98569e-05
-7.385e-07
3.04437e-05
-5.86847e-07
3.08369e-05
-3.93113e-07
3.09648e-05
-1.27939e-07
3.07126e-05
2.52192e-07
2.99708e-05
7.41817e-07
2.86343e-05
1.33647e-06
2.65763e-05
2.05805e-06
2.36502e-05
2.92611e-06
1.97282e-05
3.92199e-06
1.47795e-05
4.94868e-06
8.9849e-06
5.79458e-06
2.82809e-06
6.15681e-06
-2.76219e-06
5.94414e-06
-7.76811e-06
4.9365e-06
-1.08639e-05
3.01034e-06
-9.59262e-06
-2.79453e-06
-9.5903e-06
-1.04816e-06
2.89622e-06
-5.91752e-07
-4.13642e-07
4.54876e-07
-2.1147e-06
1.8189e-06
-2.81749e-06
3.2969e-06
-3.05411e-06
4.78469e-06
-3.04913e-06
6.2329e-06
-2.94051e-06
7.62335e-06
-2.80074e-06
8.95513e-06
-2.66459e-06
1.02355e-05
-2.54749e-06
1.14748e-05
-2.45474e-06
1.26837e-05
-2.38631e-06
1.38721e-05
-2.33968e-06
1.5048e-05
-2.31129e-06
1.62181e-05
-2.29736e-06
1.73871e-05
-2.29412e-06
1.85581e-05
-2.298e-06
1.97324e-05
-2.30556e-06
2.09101e-05
-2.31341e-06
2.20891e-05
-2.31816e-06
2.3266e-05
-2.31623e-06
2.44355e-05
-2.30383e-06
2.55902e-05
-2.27677e-06
2.67204e-05
-2.2304e-06
2.7814e-05
-2.15953e-06
2.88561e-05
-2.05833e-06
2.98285e-05
-1.92021e-06
3.07094e-05
-1.73767e-06
3.14728e-05
-1.50194e-06
3.20881e-05
-1.20214e-06
3.25194e-05
-8.24367e-07
3.27389e-05
-3.47416e-07
3.27259e-05
2.65203e-07
3.24211e-05
1.04661e-06
3.17277e-05
2.0298e-06
3.05268e-05
3.25893e-06
2.86675e-05
4.78547e-06
2.59537e-05
6.63573e-06
2.21589e-05
8.74349e-06
1.71063e-05
1.08472e-05
1.08727e-05
1.23904e-05
3.89316e-06
1.2927e-05
-2.00053e-06
1.16514e-05
-6.26191e-06
6.99828e-06
-6.54455e-06
-2.49069e-06
-1.61045e-05
-2.90144e-07
3.18636e-06
3.01054e-07
-1.00484e-06
1.33712e-06
-3.15077e-06
2.63209e-06
-4.11246e-06
4.03e-06
-4.45202e-06
5.44753e-06
-4.46666e-06
6.84126e-06
-4.33424e-06
8.1932e-06
-4.15268e-06
9.50031e-06
-3.9717e-06
1.07672e-05
-3.81436e-06
1.20015e-05
-3.6891e-06
1.32119e-05
-3.59664e-06
1.44061e-05
-3.53387e-06
1.55908e-05
-3.49605e-06
1.67714e-05
-3.47797e-06
1.79517e-05
-3.47437e-06
1.91339e-05
-3.48019e-06
2.03188e-05
-3.49051e-06
2.15059e-05
-3.5005e-06
2.2693e-05
-3.50523e-06
2.38763e-05
-3.49957e-06
2.50504e-05
-3.47796e-06
2.6208e-05
-3.43434e-06
2.73395e-05
-3.36194e-06
2.84332e-05
-3.2532e-06
2.94745e-05
-3.09961e-06
3.04459e-05
-2.89161e-06
3.13265e-05
-2.61829e-06
3.20917e-05
-2.26709e-06
3.27126e-05
-1.82304e-06
3.31558e-05
-1.26763e-06
3.33859e-05
-5.77491e-07
3.33691e-05
2.81944e-07
3.30622e-05
1.35357e-06
3.24065e-05
2.68551e-06
3.13309e-05
4.33452e-06
2.97527e-05
6.3637e-06
2.75702e-05
8.81817e-06
2.465e-05
1.16637e-05
2.08224e-05
1.46748e-05
1.59526e-05
1.72601e-05
1.02712e-05
1.86084e-05
4.54157e-06
1.78073e-05
-3.03494e-07
1.22667e-05
-2.64678e-06
-1.26137e-07
-1.87648e-05
2.8204e-07
2.90432e-06
9.77894e-07
-1.70069e-06
2.03406e-06
-4.20693e-06
3.2902e-06
-5.36859e-06
4.63167e-06
-5.79349e-06
5.99273e-06
-5.82771e-06
7.33813e-06
-5.67964e-06
8.65252e-06
-5.46707e-06
9.93263e-06
-5.25181e-06
1.11816e-05
-5.06329e-06
1.24053e-05
-4.91281e-06
1.36105e-05
-4.80183e-06
1.48035e-05
-4.72688e-06
1.59897e-05
-4.68229e-06
1.71734e-05
-4.66166e-06
1.83575e-05
-4.65846e-06
1.95436e-05
-4.66632e-06
2.07321e-05
-4.67902e-06
2.1922e-05
-4.69039e-06
2.31109e-05
-4.6941e-06
2.42949e-05
-4.68354e-06
2.54684e-05
-4.65153e-06
2.66243e-05
-4.59021e-06
2.77532e-05
-4.4908e-06
2.88435e-05
-4.3435e-06
2.98811e-05
-4.13727e-06
3.08492e-05
-3.85969e-06
3.17276e-05
-3.49673e-06
3.24929e-05
-3.03232e-06
3.31175e-05
-2.44769e-06
3.35702e-05
-1.72036e-06
3.38161e-05
-8.23335e-07
3.38185e-05
2.79557e-07
3.35373e-05
1.63477e-06
3.29265e-05
3.29633e-06
3.19357e-05
5.32531e-06
3.05141e-05
7.78526e-06
2.86112e-05
1.0721e-05
2.61686e-05
1.41064e-05
2.30996e-05
1.77438e-05
1.92734e-05
2.10864e-05
1.46865e-05
2.31953e-05
9.77576e-06
2.2718e-05
4.94988e-06
1.70928e-05
1.03836e-06
3.78896e-06
-1.77402e-05
6.23966e-07
2.28035e-06
1.481e-06
-2.55773e-06
2.58808e-06
-5.31401e-06
3.83653e-06
-6.61705e-06
5.14416e-06
-7.10111e-06
6.46346e-06
-7.14701e-06
7.76915e-06
-6.98533e-06
9.05033e-06
-6.74825e-06
1.03049e-05
-6.5064e-06
1.15356e-05
-6.29398e-06
1.27472e-05
-6.12441e-06
1.39451e-05
-5.99971e-06
1.51343e-05
-5.91613e-06
1.63193e-05
-5.86721e-06
1.75032e-05
-5.84556e-06
1.86882e-05
-5.84355e-06
1.98756e-05
-5.85368e-06
2.10652e-05
-5.86857e-06
2.22556e-05
-5.88081e-06
2.34443e-05
-5.88283e-06
2.46274e-05
-5.86659e-06
2.57992e-05
-5.8234e-06
2.69527e-05
-5.74369e-06
2.80787e-05
-5.61678e-06
2.91659e-05
-5.4307e-06
3.02007e-05
-5.17203e-06
3.11666e-05
-4.82566e-06
3.20445e-05
-4.37459e-06
3.28117e-05
-3.7995e-06
3.34422e-05
-3.07816e-06
3.39063e-05
-2.18454e-06
3.41711e-05
-1.08806e-06
3.42008e-05
2.49823e-07
3.39583e-05
1.87724e-06
3.34048e-05
3.84989e-06
3.25016e-05
6.22847e-06
3.12149e-05
9.072e-06
2.9518e-05
1.24179e-05
2.73877e-05
1.62366e-05
2.4786e-05
2.03456e-05
2.16225e-05
2.42499e-05
1.78066e-05
2.70112e-05
1.34379e-05
2.70867e-05
8.59515e-06
2.19356e-05
3.61104e-06
8.77307e-06
-1.42109e-05
8.09163e-07
1.47119e-06
1.83681e-06
-3.58537e-06
3.01975e-06
-6.49696e-06
4.28428e-06
-7.88157e-06
5.57678e-06
-8.39361e-06
6.86777e-06
-8.43801e-06
8.14268e-06
-8.26024e-06
9.39612e-06
-8.00169e-06
1.06282e-05
-7.73849e-06
1.1842e-05
-7.50776e-06
1.30417e-05
-7.32411e-06
1.42318e-05
-7.1898e-06
1.54163e-05
-7.10068e-06
1.65987e-05
-7.04962e-06
1.77815e-05
-7.02835e-06
1.89663e-05
-7.02832e-06
2.01536e-05
-7.04104e-06
2.13431e-05
-7.05806e-06
2.25332e-05
-7.07091e-06
2.37212e-05
-7.0708e-06
2.4903e-05
-7.04841e-06
2.60732e-05
-6.99361e-06
2.72247e-05
-6.8952e-06
2.83487e-05
-6.74069e-06
2.9434e-05
-6.51606e-06
3.04676e-05
-6.20558e-06
3.14335e-05
-5.79162e-06
3.23133e-05
-5.25436e-06
3.30853e-05
-4.57146e-06
3.37246e-05
-3.71754e-06
3.42034e-05
-2.66334e-06
3.44905e-05
-1.37514e-06
3.45526e-05
1.87777e-07
3.43554e-05
2.07437e-06
3.38654e-05
4.33993e-06
3.30515e-05
7.04237e-06
3.18892e-05
1.02343e-05
3.03629e-05
1.39442e-05
2.84625e-05
1.8137e-05
2.6168e-05
2.26401e-05
2.34122e-05
2.70057e-05
2.00754e-05
3.03479e-05
1.60618e-05
3.11003e-05
1.12215e-05
2.67759e-05
5.58706e-06
1.44075e-05
-8.64539e-06
9.09419e-07
5.61773e-07
2.08371e-06
-4.75966e-06
3.34933e-06
-7.76258e-06
4.64355e-06
-9.1758e-06
5.93414e-06
-9.6842e-06
7.20759e-06
-9.71146e-06
8.45969e-06
-9.51234e-06
9.6909e-06
-9.2329e-06
1.09041e-05
-8.95165e-06
1.2103e-05
-8.70674e-06
1.32919e-05
-8.513e-06
1.44746e-05
-8.37244e-06
1.56543e-05
-8.28041e-06
1.68338e-05
-8.2291e-06
1.80149e-05
-8.20948e-06
1.91988e-05
-8.21218e-06
2.03856e-05
-8.22783e-06
2.15746e-05
-8.24706e-06
2.2764e-05
-8.26039e-06
2.39512e-05
-8.25794e-06
2.5132e-05
-8.22919e-06
2.6301e-05
-8.16263e-06
2.74513e-05
-8.04555e-06
2.85743e-05
-7.8637e-06
2.96594e-05
-7.60111e-06
3.06937e-05
-7.23988e-06
3.1662e-05
-6.75992e-06
3.25464e-05
-6.13878e-06
3.33262e-05
-5.35128e-06
3.39779e-05
-4.36914e-06
3.44748e-05
-3.16028e-06
3.47879e-05
-1.68827e-06
3.48864e-05
8.93198e-08
3.47391e-05
2.22169e-06
3.43163e-05
4.7627e-06
3.35922e-05
7.76648e-06
3.25473e-05
1.12792e-05
3.11699e-05
1.53216e-05
2.94521e-05
1.98548e-05
2.73751e-05
2.4717e-05
2.48761e-05
2.95047e-05
2.18204e-05
3.34036e-05
1.80098e-05
3.49109e-05
1.31438e-05
3.16419e-05
7.00925e-06
2.05421e-05
-1.65621e-06
9.67953e-07
-4.0618e-07
2.25619e-06
-6.04789e-06
3.59756e-06
-9.10395e-06
4.92539e-06
-1.05036e-05
6.22125e-06
-1.09801e-05
7.48454e-06
-1.09748e-05
8.72015e-06
-1.07479e-05
9.93401e-06
-1.04468e-05
1.11317e-05
-1.01494e-05
1.23183e-05
-9.89327e-06
1.34978e-05
-9.69252e-06
1.46738e-05
-9.54844e-06
1.58491e-05
-9.45566e-06
1.70257e-05
-9.40571e-06
1.8205e-05
-9.38885e-06
1.93878e-05
-9.39495e-06
2.05739e-05
-9.41388e-06
2.17623e-05
-9.43546e-06
2.29511e-05
-9.44928e-06
2.41377e-05
-9.44446e-06
2.53178e-05
-9.40934e-06
2.64863e-05
-9.33114e-06
2.76364e-05
-9.19568e-06
2.87598e-05
-8.98708e-06
2.98462e-05
-8.6875e-06
3.08832e-05
-8.27692e-06
3.18563e-05
-7.73294e-06
3.27481e-05
-7.03058e-06
3.35388e-05
-6.14203e-06
3.4206e-05
-5.03633e-06
3.47246e-05
-3.6789e-06
3.50675e-05
-2.03111e-06
3.5206e-05
-4.92689e-08
3.51121e-05
2.31561e-06
3.47594e-05
5.11546e-06
3.41253e-05
8.40053e-06
3.31931e-05
1.22114e-05
3.19513e-05
1.65634e-05
3.03886e-05
2.14176e-05
2.84797e-05
2.66259e-05
2.61551e-05
3.18293e-05
2.32656e-05
3.62932e-05
1.95539e-05
3.86226e-05
1.46189e-05
3.65769e-05
8.05876e-06
2.71022e-05
6.37902e-06
1.00639e-06
-1.41257e-06
2.37964e-06
-7.42114e-06
3.78313e-06
-1.05074e-05
5.14124e-06
-1.18617e-05
6.4442e-06
-1.2283e-05
7.70125e-06
-1.22318e-05
8.92466e-06
-1.19714e-05
1.0125e-05
-1.16471e-05
1.13104e-05
-1.13347e-05
1.24867e-05
-1.10696e-05
1.36584e-05
-1.08642e-05
1.48288e-05
-1.07188e-05
1.60001e-05
-1.0627e-05
1.71742e-05
-1.05798e-05
1.83519e-05
-1.05666e-05
1.95336e-05
-1.05767e-05
2.0719e-05
-1.05993e-05
2.19069e-05
-1.06234e-05
2.30954e-05
-1.06378e-05
2.42816e-05
-1.06307e-05
2.54616e-05
-1.05894e-05
2.66303e-05
-1.04998e-05
2.77812e-05
-1.03466e-05
2.89062e-05
-1.01121e-05
2.99955e-05
-9.77676e-06
3.10371e-05
-9.31859e-06
3.20171e-05
-8.71292e-06
3.29189e-05
-7.93237e-06
3.37235e-05
-6.94664e-06
3.44095e-05
-5.72231e-06
3.49532e-05
-4.2226e-06
3.53292e-05
-2.40713e-06
3.55114e-05
-2.31427e-07
3.5474e-05
2.35295e-06
3.51936e-05
5.39588e-06
3.46502e-05
8.94395e-06
3.3828e-05
1.30335e-05
3.27142e-05
1.76773e-05
3.12921e-05
2.28397e-05
2.95271e-05
2.83909e-05
2.73383e-05
3.40181e-05
2.45594e-05
3.90721e-05
2.08908e-05
4.22912e-05
1.5856e-05
4.16117e-05
8.93709e-06
3.40211e-05
1.52926e-05
1.03542e-06
-2.44799e-06
2.47113e-06
-8.85685e-06
3.92107e-06
-1.19574e-05
5.30173e-06
-1.32424e-05
6.60957e-06
-1.35909e-05
7.8613e-06
-1.34835e-05
9.07483e-06
-1.31849e-05
1.02643e-05
-1.28366e-05
1.14396e-05
-1.25101e-05
1.26077e-05
-1.22377e-05
1.3773e-05
-1.20296e-05
1.49387e-05
-1.18845e-05
1.61068e-05
-1.17952e-05
1.72787e-05
-1.17517e-05
1.84551e-05
-1.17429e-05
1.9636e-05
-1.17575e-05
2.08208e-05
-1.17841e-05
2.20084e-05
-1.18109e-05
2.31967e-05
-1.18261e-05
2.4383e-05
-1.18169e-05
2.55633e-05
-1.17697e-05
2.67329e-05
-1.16694e-05
2.78854e-05
-1.14991e-05
2.90131e-05
-1.12398e-05
3.01067e-05
-1.08703e-05
3.11547e-05
-1.03666e-05
3.21437e-05
-9.70193e-06
3.30579e-05
-8.84654e-06
3.3879e-05
-7.76779e-06
3.45868e-05
-6.43002e-06
3.51587e-05
-4.79454e-06
3.55711e-05
-2.81958e-06
3.58e-05
-4.60299e-07
3.58221e-05
2.33089e-06
3.56162e-05
5.60176e-06
3.51644e-05
9.39575e-06
3.44516e-05
1.37463e-05
3.34629e-05
1.86659e-05
3.21764e-05
2.41261e-05
3.05483e-05
3.00191e-05
2.84852e-05
3.60811e-05
2.58025e-05
4.17549e-05
2.21636e-05
4.59301e-05
1.70226e-05
4.67527e-05
9.76259e-06
4.12811e-05
2.50305e-05
1.06064e-06
-3.50863e-06
2.54155e-06
-1.03378e-05
4.02249e-06
-1.34383e-05
5.41583e-06
-1.46357e-05
6.72373e-06
-1.48988e-05
7.9688e-06
-1.47286e-05
9.17306e-06
-1.43891e-05
1.03531e-05
-1.40165e-05
1.152e-05
-1.36771e-05
1.26812e-05
-1.33989e-05
1.38413e-05
-1.31896e-05
1.50032e-05
-1.30464e-05
1.61687e-05
-1.29607e-05
1.73389e-05
-1.29219e-05
1.85142e-05
-1.29182e-05
1.96944e-05
-1.29378e-05
2.08789e-05
-1.29686e-05
2.20663e-05
-1.29984e-05
2.32547e-05
-1.30145e-05
2.44413e-05
-1.30035e-05
2.56225e-05
-1.29509e-05
2.67934e-05
-1.28403e-05
2.79483e-05
-1.26539e-05
2.90797e-05
-1.23712e-05
3.01788e-05
-1.19694e-05
3.12346e-05
-1.14225e-05
3.22344e-05
-1.07017e-05
3.31631e-05
-9.77517e-06
3.40032e-05
-8.60788e-06
3.47353e-05
-7.16212e-06
3.53382e-05
-5.39752e-06
3.579e-05
-3.27133e-06
3.60684e-05
-7.38697e-07
3.61524e-05
2.24687e-06
3.60232e-05
5.73099e-06
3.56645e-05
9.75446e-06
3.50618e-05
1.4349e-05
3.4199e-05
1.95288e-05
3.305e-05
2.52751e-05
3.15638e-05
3.15053e-05
2.96365e-05
3.80084e-05
2.70661e-05
4.43252e-05
2.34805e-05
4.95158e-05
1.82609e-05
5.19722e-05
1.06702e-05
4.88718e-05
3.56761e-05
1.08517e-06
-4.59379e-06
2.59758e-06
-1.18502e-05
4.09512e-06
-1.49359e-05
5.49056e-06
-1.60312e-05
6.79234e-06
-1.62005e-05
8.02796e-06
-1.59642e-05
9.22228e-06
-1.55835e-05
1.03932e-05
-1.51875e-05
1.15526e-05
-1.48365e-05
1.27079e-05
-1.45541e-05
1.38636e-05
-1.43453e-05
1.50223e-05
-1.42051e-05
1.61857e-05
-1.41241e-05
1.73545e-05
-1.40907e-05
1.85289e-05
-1.40927e-05
1.97087e-05
-1.41176e-05
2.0893e-05
-1.41529e-05
2.20805e-05
-1.41858e-05
2.32691e-05
-1.42032e-05
2.44563e-05
-1.41907e-05
2.56385e-05
-1.41331e-05
2.68113e-05
-1.40131e-05
2.7969e-05
-1.38116e-05
2.91048e-05
-1.3507e-05
3.02102e-05
-1.30748e-05
3.12751e-05
-1.24873e-05
3.22871e-05
-1.17138e-05
3.32319e-05
-1.072e-05
3.4093e-05
-9.46892e-06
3.48517e-05
-7.92086e-06
3.54882e-05
-6.03399e-06
3.59817e-05
-3.76488e-06
3.63121e-05
-1.06904e-06
3.64603e-05
2.09864e-06
3.64097e-05
5.78161e-06
3.61458e-05
1.00183e-05
3.56553e-05
1.48395e-05
3.49215e-05
2.02625e-05
3.39168e-05
2.62799e-05
3.25861e-05
3.2836e-05
3.08194e-05
3.97751e-05
2.84017e-05
4.67429e-05
2.49285e-05
5.2989e-05
1.97026e-05
5.71982e-05
1.18102e-05
5.67642e-05
4.74687e-05
1.11077e-06
-5.70456e-06
2.64315e-06
-1.33826e-05
4.14402e-06
-1.64367e-05
5.53118e-06
-1.74183e-05
6.82021e-06
-1.74896e-05
8.04283e-06
-1.71868e-05
9.22567e-06
-1.67663e-05
1.03872e-05
-1.63491e-05
1.15393e-05
-1.59885e-05
1.2689e-05
-1.57039e-05
1.38407e-05
-1.54969e-05
1.49967e-05
-1.53611e-05
1.61582e-05
-1.52856e-05
1.73259e-05
-1.52584e-05
1.84997e-05
-1.52664e-05
1.96791e-05
-1.5297e-05
2.08633e-05
-1.5337e-05
2.20508e-05
-1.53734e-05
2.32398e-05
-1.53921e-05
2.44276e-05
-1.53785e-05
2.56109e-05
-1.53164e-05
2.67857e-05
-1.51878e-05
2.79465e-05
-1.49725e-05
2.90871e-05
-1.46476e-05
3.01995e-05
-1.41872e-05
3.12741e-05
-1.35619e-05
3.22994e-05
-1.27391e-05
3.32617e-05
-1.16823e-05
3.41453e-05
-1.03525e-05
3.49325e-05
-8.70804e-06
3.56044e-05
-6.7059e-06
3.61418e-05
-4.30224e-06
3.6526e-05
-1.45328e-06
3.67402e-05
1.88439e-06
3.67699e-05
5.75192e-06
3.66027e-05
1.01856e-05
3.62268e-05
1.52154e-05
3.56271e-05
2.08623e-05
3.47763e-05
2.71306e-05
3.36205e-05
3.39918e-05
3.20495e-05
4.13461e-05
2.98451e-05
4.89473e-05
2.65801e-05
5.6254e-05
2.14823e-05
6.2296e-05
1.33689e-05
6.48776e-05
6.08512e-05
1.13852e-06
-6.84308e-06
2.68038e-06
-1.49244e-05
4.17233e-06
-1.79287e-05
5.54147e-06
-1.87875e-05
6.81128e-06
-1.87594e-05
8.01709e-06
-1.83926e-05
9.18646e-06
-1.79357e-05
1.03377e-05
-1.75003e-05
1.14821e-05
-1.71329e-05
1.26263e-05
-1.68481e-05
1.37741e-05
-1.66447e-05
1.49275e-05
-1.65144e-05
1.60873e-05
-1.64455e-05
1.72539e-05
-1.6425e-05
1.8427e-05
-1.64396e-05
1.96061e-05
-1.6476e-05
2.07901e-05
-1.6521e-05
2.19776e-05
-1.65609e-05
2.31667e-05
-1.65813e-05
2.43551e-05
-1.65669e-05
2.55395e-05
-1.65008e-05
2.67161e-05
-1.63644e-05
2.788e-05
-1.61365e-05
2.90254e-05
-1.5793e-05
3.01449e-05
-1.53067e-05
3.12297e-05
-1.46467e-05
3.22688e-05
-1.37782e-05
3.32495e-05
-1.2663e-05
3.41567e-05
-1.12597e-05
3.49736e-05
-9.52497e-06
3.56824e-05
-7.41467e-06
3.62651e-05
-4.88488e-06
3.67046e-05
-1.89282e-06
3.69862e-05
1.60282e-06
3.70974e-05
5.64066e-06
3.70284e-05
1.02546e-05
3.67697e-05
1.5474e-05
3.63092e-05
2.13228e-05
3.56235e-05
2.78163e-05
3.46643e-05
3.49509e-05
3.33308e-05
4.26796e-05
3.14158e-05
5.08624e-05
2.84931e-05
5.91767e-05
2.37434e-05
6.70457e-05
1.55963e-05
7.30247e-05
7.64014e-05
1.16934e-06
-8.01242e-06
2.71001e-06
-1.64651e-05
4.18174e-06
-1.94004e-05
5.5241e-06
-2.01298e-05
6.7688e-06
-2.00041e-05
7.95416e-06
-1.9578e-05
9.10791e-06
-1.90894e-05
1.02476e-05
-1.864e-05
1.13837e-05
-1.8269e-05
1.2522e-05
-1.79864e-05
1.36657e-05
-1.77884e-05
1.48163e-05
-1.7665e-05
1.59743e-05
-1.76035e-05
1.71397e-05
-1.75903e-05
1.8312e-05
-1.76119e-05
1.94905e-05
-1.76545e-05
2.06741e-05
-1.77046e-05
2.18614e-05
-1.77481e-05
2.30504e-05
-1.77703e-05
2.42389e-05
-1.77554e-05
2.5424e-05
-1.76859e-05
2.66021e-05
-1.75425e-05
2.77687e-05
-1.73031e-05
2.89186e-05
-1.69428e-05
3.00449e-05
-1.64331e-05
3.11397e-05
-1.57414e-05
3.21927e-05
-1.48313e-05
3.3192e-05
-1.36623e-05
3.41234e-05
-1.2191e-05
3.49708e-05
-1.03724e-05
3.57173e-05
-8.16118e-06
3.63461e-05
-5.51368e-06
3.68417e-05
-2.38847e-06
3.71913e-05
1.25327e-06
3.73847e-05
5.44723e-06
3.74147e-05
1.02246e-05
3.72753e-05
1.56134e-05
3.69586e-05
2.16395e-05
3.64482e-05
2.83267e-05
3.57072e-05
3.5692e-05
3.46539e-05
4.37329e-05
3.31131e-05
5.24031e-05
3.07008e-05
6.1589e-05
2.66449e-05
7.11016e-05
1.88779e-05
8.07917e-05
9.52262e-05
1.20063e-06
-9.21305e-06
2.73159e-06
-1.7996e-05
4.17297e-06
-2.08418e-05
5.48103e-06
-2.14379e-05
6.6957e-06
-2.12187e-05
7.85751e-06
-2.07398e-05
8.9937e-06
-2.02256e-05
1.01206e-05
-1.97669e-05
1.12476e-05
-1.9396e-05
1.23795e-05
-1.91183e-05
1.35188e-05
-1.89277e-05
1.46664e-05
-1.88126e-05
1.58223e-05
-1.87595e-05
1.69863e-05
-1.87543e-05
1.81576e-05
-1.87832e-05
1.93352e-05
-1.88322e-05
2.05181e-05
-1.88875e-05
2.17047e-05
-1.89347e-05
2.28932e-05
-1.89588e-05
2.40814e-05
-1.89436e-05
2.52666e-05
-1.88711e-05
2.64456e-05
-1.87215e-05
2.76143e-05
-1.84719e-05
2.87679e-05
-1.80964e-05
2.99005e-05
-1.75656e-05
3.10047e-05
-1.68456e-05
3.20713e-05
-1.58979e-05
3.3089e-05
-1.46801e-05
3.40445e-05
-1.31465e-05
3.49225e-05
-1.12504e-05
3.5707e-05
-8.94566e-06
3.63822e-05
-6.18886e-06
3.6934e-05
-2.9403e-06
3.73514e-05
8.35883e-07
3.76267e-05
5.17191e-06
3.77556e-05
1.00957e-05
3.77362e-05
1.56328e-05
3.75662e-05
2.18095e-05
3.72386e-05
2.86544e-05
3.67325e-05
3.61981e-05
3.5996e-05
4.44694e-05
3.49097e-05
5.34895e-05
3.31948e-05
6.33039e-05
3.02444e-05
7.4052e-05
2.31805e-05
8.78556e-05
0.000118361
-1.00704e-39
1.38366e-40
-1.07581e-38
5.22132e-39
-1.38233e-38
9.45626e-39
-2.62624e-39
3.29743e-39
-3.53579e-40
2.48953e-40
-2.08081e-41
1.33945e-41
-4.51985e-43
5.04408e-44
-2.08585e-45
-3.58487e-44
-5.8696e-48
-2.92774e-46
-1.14901e-48
-5.80617e-48
-4.97344e-49
-7.63589e-49
-2.25124e-49
-1.93385e-49
-6.03988e-50
-1.38533e-49
-6.32095e-51
-4.65304e-50
-1.59258e-52
-6.21567e-51
-1.33449e-54
-2.17052e-52
1.51261e-56
-3.50082e-54
2.92554e-57
-9.88503e-56
2.52566e-58
-4.02331e-57
1.43197e-59
-1.59916e-58
5.95091e-61
-5.25109e-60
2.03371e-62
-1.39309e-61
6.09102e-64
-2.99696e-63
1.61342e-65
-4.80324e-65
3.78623e-67
-3.18694e-67
7.89979e-69
2.90676e-69
1.42205e-70
1.47653e-70
2.1685e-72
4.16045e-72
2.7683e-74
8.71735e-74
2.89585e-76
1.44554e-75
2.39715e-78
1.91877e-77
1.49362e-80
2.00855e-79
6.48909e-83
1.5998e-81
1.72376e-85
9.08828e-84
2.14579e-88
3.27575e-86
5.50367e-92
5.84137e-89
-1.46574e-93
2.47125e-92
-1.73677e-93
-8.41622e-38
4.36961e-38
-6.59177e-37
9.26157e-37
-1.05365e-36
1.61018e-36
-5.69767e-37
1.15161e-36
-9.50952e-38
1.96343e-37
-6.49062e-39
1.20349e-38
-1.38666e-40
2.01649e-41
-8.65776e-43
-1.42962e-41
-2.89147e-45
-1.64859e-43
-2.71639e-46
-2.6263e-45
-1.09023e-46
-1.24318e-46
-4.51086e-47
-7.39654e-47
-1.00313e-47
-3.08444e-47
-8.64094e-49
-7.31578e-48
-2.07719e-50
-7.25489e-49
-1.91985e-52
-2.53203e-50
8.8646e-55
-5.40309e-52
2.85059e-55
-1.63047e-53
2.45451e-56
-6.12437e-55
1.34636e-57
-2.1851e-56
5.41998e-59
-6.58024e-58
1.80192e-60
-1.64145e-59
5.2623e-62
-3.36783e-61
1.35946e-63
-5.2425e-63
3.08669e-65
-3.94366e-65
6.1436e-67
7.40438e-67
1.05585e-68
4.03666e-68
1.54251e-70
1.11318e-69
1.88871e-72
2.24911e-71
1.8974e-74
3.57454e-73
1.51516e-76
4.53211e-75
9.18575e-79
4.52871e-77
3.94049e-81
3.44753e-79
1.06282e-83
1.87657e-81
1.43929e-86
6.49116e-84
5.85333e-90
1.10778e-86
4.93924e-94
4.79432e-90
-3.55856e-93
-6.88371e-36
5.79206e-36
-5.1843e-35
8.60504e-35
-8.58803e-35
1.67533e-34
-5.19534e-35
1.33757e-34
-9.19822e-36
2.50535e-35
-6.35354e-37
1.59703e-36
-1.45278e-38
-1.62982e-39
-1.32973e-40
-2.12358e-39
-9.79948e-43
-3.38263e-41
-7.96046e-44
-8.9984e-43
-1.46733e-44
-4.58723e-44
-3.37601e-45
-1.04967e-44
-4.87652e-46
-2.66512e-45
-3.12351e-47
-4.59971e-46
-7.49227e-49
-3.72543e-47
-9.25439e-51
-1.30403e-48
1.40393e-53
-3.22669e-50
1.11015e-53
-9.63823e-52
8.45517e-55
-3.25125e-53
4.15693e-56
-1.02608e-54
1.55518e-57
-2.78815e-56
4.87298e-59
-6.40849e-58
1.33833e-60
-1.22604e-59
3.24296e-62
-1.80414e-61
6.90618e-64
-1.39471e-63
1.28943e-65
2.06598e-65
2.08633e-67
1.16844e-66
2.88185e-69
3.08362e-68
3.3503e-71
5.91183e-70
3.21134e-73
8.90711e-72
2.46306e-75
1.07181e-73
1.44707e-77
1.01876e-75
6.08483e-80
7.39652e-78
1.62472e-82
3.84071e-80
2.18514e-85
1.2472e-82
9.60116e-89
1.93669e-85
1.43527e-91
8.531e-89
1.17673e-91
-2.96856e-34
3.27117e-34
-2.49713e-33
4.61471e-33
-4.67868e-33
1.01819e-32
-3.02282e-33
8.86399e-33
-5.65863e-34
1.83572e-33
-4.01563e-35
1.20719e-34
-1.00292e-36
-5.03987e-37
-1.32852e-38
-1.78085e-37
-2.35394e-40
-4.05135e-39
-1.52848e-41
-1.23259e-40
-1.41368e-42
-1.04338e-41
-1.78168e-43
-1.15385e-42
-1.80713e-44
-1.75733e-43
-9.3602e-46
-2.18857e-44
-2.16819e-47
-1.41385e-45
-2.88543e-49
-4.63343e-47
-5.52972e-53
-1.18763e-48
2.70926e-52
-3.37377e-50
1.8425e-53
-1.02131e-51
8.13705e-55
-2.86634e-53
2.79654e-56
-7.02742e-55
8.12945e-58
-1.48017e-56
2.0727e-59
-2.6207e-58
4.66512e-61
-3.60994e-60
9.24865e-63
-2.7609e-62
1.61165e-64
3.12584e-64
2.44452e-66
1.8175e-65
3.17973e-68
4.55702e-67
3.49647e-70
8.24667e-69
3.185e-72
1.17278e-70
2.33356e-74
1.33371e-72
1.31605e-76
1.19918e-74
5.31049e-79
8.22163e-77
1.35507e-81
3.97948e-79
1.81207e-84
1.20444e-81
9.73216e-88
1.83018e-84
8.88194e-90
1.14943e-87
2.06478e-89
-8.94007e-33
1.1637e-32
-8.88211e-32
1.75531e-31
-1.85542e-31
4.34029e-31
-1.25832e-31
4.03694e-31
-2.49436e-32
8.99219e-32
-1.80643e-33
6.0822e-33
-5.13464e-35
-4.42823e-35
-1.06827e-36
-1.03797e-35
-3.62901e-38
-4.13485e-37
-2.04509e-39
-2.278e-38
-1.19416e-40
-1.67667e-39
-8.75107e-42
-1.1775e-40
-5.97047e-43
-1.02287e-41
-2.37822e-44
-8.53156e-43
-5.03637e-46
-4.34347e-44
-6.72834e-48
-1.31918e-45
-3.73278e-51
-3.33995e-47
5.27822e-51
-8.78086e-49
3.16992e-52
-2.37678e-50
1.25366e-53
-5.94578e-52
3.93685e-55
-1.3169e-53
1.05546e-56
-2.53807e-55
2.48726e-58
-4.14638e-57
5.18431e-60
-5.32096e-59
9.54659e-62
-3.94363e-61
1.54994e-63
3.46602e-63
2.19975e-65
2.06125e-64
2.68852e-67
4.8916e-66
2.78824e-69
8.33121e-68
2.40359e-71
1.11486e-69
1.67021e-73
1.19294e-71
8.91209e-76
1.00692e-73
3.39343e-78
6.42299e-76
8.37241e-81
2.90565e-78
1.1464e-83
8.41524e-81
7.64306e-87
1.31178e-83
1.96999e-88
1.14578e-86
6.7158e-88
-2.11647e-31
3.07299e-31
-2.50698e-30
5.17785e-30
-5.76907e-30
1.41693e-29
-4.05379e-30
1.38593e-29
-8.61962e-31
3.25369e-30
-6.39806e-32
2.27805e-31
-2.40474e-33
-2.42553e-33
-8.73147e-35
-5.94678e-34
-4.16295e-36
-4.12975e-35
-2.11835e-37
-3.0311e-36
-9.02517e-39
-1.9799e-37
-4.00014e-40
-1.00786e-38
-1.75029e-41
-5.19957e-40
-5.37666e-43
-2.75449e-41
-1.04086e-44
-1.12033e-42
-1.32366e-46
-3.26774e-44
2.75697e-50
-8.13884e-46
9.17777e-50
-1.96812e-47
4.80013e-51
-4.73519e-49
1.69422e-52
-1.05083e-50
4.84222e-54
-2.09266e-52
1.19218e-55
-3.67455e-54
2.58869e-57
-5.51897e-56
4.98613e-59
-6.57088e-58
8.51362e-61
-4.6518e-60
1.28592e-62
3.23638e-62
1.70439e-64
1.95203e-63
1.95176e-66
4.36751e-65
1.90105e-68
6.97605e-67
1.54019e-70
8.74276e-69
1.00383e-72
8.73541e-71
5.02633e-75
6.85586e-73
1.81718e-77
4.07594e-75
4.36268e-80
1.73982e-77
6.20778e-83
4.87099e-80
5.1826e-86
8.22659e-83
2.37637e-87
9.37878e-86
1.06959e-86
-4.16923e-30
6.48978e-30
-5.93555e-29
1.25286e-28
-1.51776e-28
3.80458e-28
-1.12876e-28
3.90938e-28
-2.68089e-29
9.93901e-29
-2.33091e-30
7.39597e-30
-1.34654e-31
-1.59581e-31
-7.36011e-33
-4.51319e-32
-3.87551e-34
-4.70209e-33
-1.75652e-35
-3.65068e-34
-5.90151e-37
-2.02947e-35
-1.73975e-38
-7.83964e-37
-4.86784e-40
-2.58909e-38
-1.1307e-41
-8.30368e-40
-1.96329e-43
-2.47947e-41
-2.28739e-45
-6.63506e-43
4.56801e-48
-1.63283e-44
1.53413e-48
-3.8041e-46
6.89788e-50
-8.4702e-48
2.16239e-51
-1.70533e-49
5.59573e-53
-3.07142e-51
1.25983e-54
-4.89808e-53
2.51397e-56
-6.72591e-55
4.46648e-58
-7.38608e-57
7.05887e-60
-4.93204e-59
9.89893e-62
2.78409e-61
1.22167e-63
1.67928e-62
1.3046e-65
3.52359e-64
1.18422e-67
5.2485e-66
8.92214e-70
6.10796e-68
5.41257e-72
5.6558e-70
2.53262e-74
4.10684e-72
8.7272e-77
2.27959e-74
2.07253e-79
9.28684e-77
3.15167e-82
2.58945e-79
3.22841e-85
4.85839e-82
2.01743e-86
6.83507e-85
1.13688e-85
-7.19749e-29
1.15258e-28
-1.29717e-27
2.69992e-27
-3.88699e-27
9.47337e-27
-3.31928e-27
1.04824e-26
-9.59907e-28
3.2366e-27
-1.25906e-28
2.68494e-28
-9.66252e-30
-1.95743e-29
-6.60644e-31
-6.29703e-30
-3.31585e-32
-8.5473e-31
-1.31105e-33
-5.73246e-32
-3.60986e-35
-2.65812e-33
-7.93305e-37
-7.88265e-35
-1.51477e-38
-1.82183e-36
-2.50075e-40
-3.69846e-38
-3.48458e-42
-6.98487e-40
-3.40591e-44
-1.33189e-41
1.69525e-46
-2.71702e-43
2.44299e-47
-5.88336e-45
9.6012e-49
-1.25401e-46
2.70065e-50
-2.41435e-48
6.33857e-52
-4.11538e-50
1.30252e-53
-6.13506e-52
2.38346e-55
-7.80401e-54
3.89938e-57
-7.92182e-56
5.69426e-59
-4.94679e-58
7.39712e-61
2.33739e-60
8.46669e-63
1.38104e-61
8.37859e-65
2.69959e-63
7.04744e-67
3.72654e-65
4.92555e-69
4.01493e-67
2.77351e-71
3.44089e-69
1.2233e-73
2.32178e-71
4.12482e-76
1.22894e-73
9.97194e-79
4.88332e-76
1.68044e-81
1.4258e-78
1.98513e-84
2.94147e-81
1.39611e-85
4.78066e-84
9.51306e-85
-1.24574e-27
1.93366e-27
-3.08745e-26
6.0236e-26
-1.15486e-25
2.58448e-25
-1.2089e-25
3.16943e-25
-4.30126e-26
1.36776e-25
-8.09554e-27
1.13897e-26
-7.50777e-28
-2.9084e-27
-5.44031e-29
-8.95959e-28
-2.30089e-30
-9.94307e-29
-8.49535e-32
-4.95824e-30
-2.14753e-33
-2.34712e-31
-4.09319e-35
-7.39163e-33
-6.25475e-37
-1.70205e-34
-7.60169e-39
-3.05398e-36
-7.4447e-41
-4.27909e-38
-5.00065e-43
-5.1676e-40
4.40165e-45
-6.63265e-42
3.64741e-46
-1.04153e-43
1.25527e-47
-1.79008e-45
3.22501e-49
-3.02604e-47
6.99473e-51
-4.79739e-49
1.32983e-52
-6.83513e-51
2.24793e-54
-8.33173e-53
3.39581e-56
-8.02809e-55
4.58309e-58
-4.72971e-57
5.50717e-60
1.97938e-59
5.83172e-62
1.11766e-60
5.33798e-64
2.02852e-62
4.14729e-66
2.59222e-64
2.69907e-68
2.5853e-66
1.46114e-70
2.08625e-68
6.34585e-73
1.36416e-70
2.1225e-75
7.01978e-73
5.41115e-78
2.82732e-75
9.97159e-81
8.72158e-78
1.28107e-83
1.94495e-80
8.5586e-85
3.40468e-83
6.89012e-84
-2.61676e-26
3.74717e-26
-8.0659e-25
1.46521e-24
-3.34137e-24
7.12941e-24
-3.8676e-24
9.151e-24
-1.50362e-24
5.1031e-24
-3.08536e-25
3.28699e-25
-2.77921e-26
-1.36846e-25
-1.60241e-27
-2.84643e-26
-5.73743e-29
-2.0353e-27
-2.21619e-30
-8.38265e-29
-6.3608e-32
-4.34145e-30
-1.37944e-33
-1.71012e-31
-2.30909e-35
-5.21357e-33
-2.7772e-37
-1.27259e-34
-2.26641e-39
-2.29111e-36
-9.71524e-42
-3.03906e-38
1.3925e-43
-3.44054e-40
6.55164e-45
-3.98492e-42
1.74703e-46
-4.64836e-44
3.83389e-48
-5.48861e-46
7.49054e-50
-6.58456e-48
1.31885e-51
-7.78527e-50
2.08509e-53
-8.49707e-52
2.94412e-55
-7.6719e-54
3.70054e-57
-4.28739e-56
4.13192e-59
1.71316e-58
4.06085e-61
9.03852e-60
3.46838e-63
1.52742e-61
2.57308e-65
1.83892e-63
1.6322e-67
1.76688e-65
8.57156e-70
1.37923e-67
3.66589e-72
8.73506e-70
1.2641e-74
4.50848e-72
3.37112e-77
1.86411e-74
6.53778e-80
5.9553e-77
8.78647e-83
1.40639e-79
4.96738e-84
2.52517e-82
4.66911e-83
-5.75699e-25
7.84752e-25
-1.70341e-23
2.99202e-23
-6.83403e-23
1.3914e-22
-7.30198e-23
1.69772e-22
-2.51198e-23
7.67526e-23
-3.59052e-24
3.67771e-24
-2.57416e-25
-1.06436e-24
-1.19463e-26
-1.59729e-25
-4.26002e-28
-8.96684e-27
-1.72082e-29
-4.02024e-28
-5.63735e-31
-2.11908e-29
-1.46334e-32
-9.16257e-31
-3.02923e-34
-3.30099e-32
-4.54e-36
-1.03252e-33
-4.34576e-38
-2.57631e-35
-1.42556e-40
-5.0846e-37
5.442e-42
-8.85856e-39
1.77987e-43
-1.35349e-40
3.57053e-45
-1.67765e-42
6.02042e-47
-1.77518e-44
9.39918e-49
-1.66538e-46
1.39865e-50
-1.45014e-48
1.97041e-52
-1.18567e-50
2.5668e-54
-8.56577e-53
3.01794e-56
-4.14274e-55
3.16749e-58
1.54699e-57
2.96483e-60
7.49835e-59
2.4542e-62
1.21108e-60
1.76867e-64
1.41138e-62
1.08244e-66
1.30634e-64
5.59992e-69
9.896e-67
2.43115e-71
6.25076e-69
8.55477e-74
3.2509e-71
2.35111e-76
1.36801e-73
4.72235e-79
4.50521e-76
6.40171e-82
1.09917e-78
3.05341e-83
1.97611e-81
3.30659e-82
-1.06465e-23
1.43033e-23
-2.31464e-22
4.08437e-22
-7.25721e-22
1.50961e-21
-6.14353e-22
1.56923e-21
-1.46095e-22
4.04271e-22
-1.23376e-23
9.7401e-24
-7.48194e-25
-2.37814e-24
-3.61097e-26
-3.15995e-25
-1.65948e-27
-2.32746e-26
-6.66559e-29
-1.67159e-27
-2.22084e-30
-8.04369e-29
-6.03735e-32
-3.22421e-30
-1.34272e-33
-1.09559e-31
-2.29256e-35
-3.22987e-33
-2.5368e-37
-8.32404e-35
-1.87706e-40
-1.92843e-36
9.05816e-41
-5.67147e-38
3.03334e-42
-1.38362e-39
6.46217e-44
-2.19783e-41
1.08685e-45
-3.02888e-43
1.53267e-47
-3.54944e-45
1.90835e-49
-3.27831e-47
2.2172e-51
-2.40781e-49
2.46775e-53
-1.4001e-51
2.6195e-55
-5.20446e-54
2.59906e-57
1.54088e-56
2.3512e-59
6.71055e-58
1.88484e-61
1.03477e-59
1.3127e-63
1.15712e-61
7.89745e-66
1.03845e-63
4.1044e-68
7.79022e-66
1.79757e-70
4.91793e-68
6.39102e-73
2.57064e-70
1.77976e-75
1.09024e-72
3.63788e-78
3.65418e-75
4.88445e-81
9.06142e-78
1.92817e-82
1.61245e-80
2.3564e-81
-1.53493e-22
2.05704e-22
-1.99223e-21
3.59604e-21
-4.16858e-21
9.17711e-21
-2.19763e-21
7.50962e-21
-3.52484e-22
9.7452e-22
-2.26939e-23
1.83794e-24
-1.23363e-24
-6.7918e-24
-9.95892e-26
-5.61731e-25
-8.70947e-27
-9.80066e-26
-3.45593e-28
-1.29556e-26
-1.07161e-29
-6.11262e-28
-2.52877e-31
-2.3615e-29