/*--------------------------------*- C++ -*----------------------------------*\
  =========                 |
  \\      /  F ield         | OpenFOAM: The Open Source CFD Toolbox
   \\    /   O peration     | Website:  https://openfoam.org
    \\  /    A nd           | Version:  7
     \\/     M anipulation  |
\*---------------------------------------------------------------------------*/
FoamFile
{
    version     2.0;
    format      ascii;
    class       volScalarField;
    location    "0.3";
    object      epsilon;
}
// * * * * * * * * * * * * * * * * * * * * * * * * * * * * * * * * * * * * * //

dimensions      [0 2 -3 0 0 0 0];

internalField   nonuniform List<scalar> 
9072
(
0.0321496
0.116597
0.228424
0.333436
0.431406
0.5188
0.600034
0.677809
0.754435
0.831822
0.911479
0.994547
1.08184
1.17388
1.27092
1.37291
1.47956
1.59026
1.7041
1.81987
1.93605
2.05082
2.16208
2.26753
2.36466
2.45092
2.52374
2.58067
2.61949
2.63823
2.63514
2.60768
2.56079
2.49773
2.41414
2.30854
2.1806
2.03081
1.86154
1.6794
1.49479
1.32481
1.22172
1.03554
0.907903
0.773677
0.0408935
0.0749855
0.121549
0.163989
0.200317
0.232301
0.261458
0.288969
0.315771
0.342584
0.369954
0.398284
0.427866
0.458898
0.491489
0.525663
0.561359
0.598422
0.636606
0.675568
0.714872
0.75399
0.792318
0.829186
0.863886
0.895697
0.923926
0.947943
0.96723
0.981426
0.990385
0.994281
0.997691
1.00287
1.01011
1.02119
1.03939
1.06935
1.11666
1.18621
1.27357
1.33495
1.29454
1.00466
0.713093
0.81965
0.0532401
0.0762872
0.109968
0.139617
0.16466
0.18616
0.205245
0.222876
0.239805
0.256586
0.273617
0.291184
0.309484
0.328648
0.348748
0.369802
0.391774
0.414575
0.438058
0.462022
0.486208
0.51031
0.533973
0.556814
0.578431
0.59843
0.616445
0.632175
0.645418
0.656116
0.664414
0.67082
0.677319
0.68605
0.698661
0.717718
0.747111
0.792508
0.861987
0.966201
1.11266
1.27183
1.337
1.18111
0.892805
1.20421
0.067863
0.0844407
0.111507
0.13544
0.155562
0.172591
0.187455
0.200989
0.213856
0.22654
0.239385
0.252626
0.266425
0.28088
0.296044
0.311925
0.32849
0.345666
0.363335
0.381341
0.399484
0.417532
0.435219
0.452262
0.468369
0.483265
0.496706
0.508518
0.518623
0.527086
0.534178
0.540503
0.547456
0.556913
0.570817
0.591885
0.623906
0.672088
0.743558
0.84781
0.993812
1.16658
1.2813
1.24357
1.12063
1.6789
0.0842551
0.0952491
0.117636
0.137592
0.154427
0.168638
0.180976
0.192155
0.202748
0.213184
0.22376
0.234682
0.246082
0.258041
0.270596
0.283747
0.297457
0.311657
0.326242
0.341073
0.355978
0.370759
0.385193
0.399044
0.41208
0.424081
0.434873
0.444346
0.452493
0.459453
0.465569
0.4715
0.47847
0.488222
0.502784
0.524882
0.558127
0.607163
0.677841
0.777313
0.912305
1.07533
1.2134
1.2727
1.3258
2.24301
0.100095
0.106904
0.125577
0.142271
0.156457
0.168511
0.17903
0.188604
0.197716
0.206729
0.2159
0.225401
0.235343
0.245789
0.256765
0.26826
0.280235
0.292621
0.305317
0.318193
0.331094
0.343838
0.356229
0.368061
0.379132
0.389263
0.398318
0.406234
0.413051
0.418959
0.424355
0.429936
0.436872
0.446848
0.461914
0.484769
0.51886
0.568386
0.638222
0.733667
0.859258
1.01155
1.1637
1.30122
1.51805
2.8227
0.114783
0.118125
0.133816
0.147769
0.159715
0.169993
0.179088
0.187473
0.195542
0.203593
0.211837
0.220413
0.229412
0.238881
0.248832
0.25925
0.270091
0.281282
0.292726
0.304299
0.315854
0.327222
0.338223
0.34867
0.358384
0.367213
0.375051
0.381867
0.387737
0.392893
0.397772
0.403106
0.410051
0.420263
0.435799
0.459325
0.49416
0.544206
0.613715
0.70687
0.826971
0.973484
1.13846
1.33936
1.70241
3.42041
0.128155
0.128157
0.141414
0.153101
0.163177
0.171993
0.179953
0.187437
0.194756
0.202144
0.209766
0.217733
0.226112
0.234935
0.244205
0.253898
0.263967
0.274339
0.284916
0.295578
0.306185
0.316576
0.326583
0.336034
0.344767
0.352649
0.359599
0.36561
0.37079
0.375403
0.379922
0.385108
0.392118
0.4026
0.418606
0.442778
0.478353
0.529064
0.598859
0.691441
0.80981
0.956052
1.13553
1.38992
1.88407
4.10964
0.139582
0.136661
0.147844
0.157681
0.166244
0.173893
0.180976
0.187794
0.194587
0.201531
0.208751
0.216329
0.224309
0.232712
0.24153
0.250734
0.260272
0.27007
0.280032
0.29004
0.299958
0.309635
0.318909
0.327621
0.335624
0.3428
0.349085
0.354498
0.35917
0.363393
0.367671
0.372792
0.379919
0.390699
0.407182
0.431992
0.468331
0.519878
0.590527
0.683998
0.803728
0.954408
1.15095
1.45288
2.06249
4.75476
0.149293
0.143603
0.152885
0.161199
0.168576
0.175341
0.181785
0.188145
0.1946
0.201278
0.208265
0.215617
0.223363
0.231507
0.240037
0.248916
0.258091
0.267486
0.277006
0.286538
0.295948
0.305091
0.313815
0.32197
0.329419
0.33606
0.341844
0.346808
0.351105
0.355053
0.359182
0.364304
0.371592
0.382686
0.399644
0.425086
0.462211
0.514738
0.586704
0.682217
0.805696
0.964547
1.18094
1.52784
2.2438
5.41773
0.157502
0.149089
0.156515
0.163546
0.170013
0.176148
0.182174
0.188264
0.194545
0.201102
0.207993
0.215249
0.222884
0.230892
0.239253
0.247928
0.25686
0.265975
0.275179
0.28436
0.293391
0.302132
0.310439
0.318168
0.325195
0.331428
0.336833
0.341462
0.345488
0.349248
0.353298
0.358468
0.365946
0.377362
0.394784
0.420838
0.458751
0.512349
0.585956
0.684339
0.813299
0.983149
1.22219
1.61436
2.43591
6.13304
0.1644
0.153286
0.158832
0.164744
0.170525
0.176249
0.182048
0.188032
0.19428
0.200842
0.207747
0.215009
0.222629
0.230593
0.238875
0.247434
0.256213
0.265137
0.274115
0.283039
0.291786
0.300222
0.308208
0.315612
0.322316
0.328239
0.33336
0.337743
0.341578
0.34522
0.349245
0.3545
0.362182
0.373918
0.391782
0.418411
0.457082
0.51177
0.587185
0.688927
0.824467
1.00729
1.27157
1.71185
2.64837
6.9315
0.170237
0.156382
0.159996
0.164903
0.17017
0.175658
0.181389
0.187405
0.193738
0.200405
0.207414
0.214763
0.222442
0.230431
0.238701
0.247209
0.255899
0.264697
0.273516
0.28225
0.290783
0.298985
0.306727
0.31388
0.320339
0.32603
0.330942
0.335151
0.33886
0.342441
0.346483
0.35185
0.359744
0.371787
0.390058
0.417206
0.456566
0.512287
0.589503
0.694742
0.837317
1.03415
1.32572
1.81902
2.8935
7.85456
0.175289
0.158573
0.160193
0.164177
0.169057
0.174445
0.180232
0.186388
0.192898
0.19975
0.206932
0.214427
0.22222
0.230285
0.238591
0.247094
0.25574
0.264459
0.273165
0.281759
0.290129
0.298152
0.305704
0.312666
0.31894
0.324461
0.329227
0.333322
0.336962
0.340528
0.344623
0.35012
0.358227
0.370558
0.389191
0.416786
0.456732
0.513345
0.592183
0.700702
0.850085
1.06083
1.38041
1.93257
3.18462
8.95938
0.179844
0.160042
0.159612
0.162737
0.167326
0.17271
0.178643
0.185017
0.191772
0.198866
0.206268
0.213953
0.221897
0.230071
0.238444
0.246973
0.255607
0.264276
0.272902
0.28139
0.289632
0.297514
0.304919
0.311737
0.317875
0.323278
0.327949
0.331983
0.3356
0.339193
0.343373
0.349018
0.357338
0.369934
0.38888
0.416835
0.457229
0.514524
0.594648
0.705887
0.861132
1.08429
1.42996
2.04389
3.51593
10.3175
0.184192
0.160948
0.158427
0.160756
0.165126
0.170572
0.17671
0.183352
0.190394
0.197764
0.205417
0.213315
0.22143
0.229733
0.23819
0.246763
0.2554
0.264039
0.272604
0.281006
0.289146
0.296915
0.304204
0.310912
0.316953
0.32228
0.326903
0.330921
0.33456
0.338219
0.342512
0.348322
0.356853
0.369694
0.3889
0.417122
0.457809
0.515522
0.596466
0.709568
0.869046
1.10146
1.46708
2.13379
3.8211
12.1122
0.064906
0.163978
0.231884
0.279346
0.313813
0.33955
0.358993
0.373414
0.382636
0.38745
0.388616
0.386805
0.382663
0.376798
0.369776
0.362079
0.354048
0.346316
0.339119
0.332428
0.326245
0.320519
0.315147
0.309989
0.304899
0.299839
0.294383
0.288141
0.280727
0.271687
0.260474
0.246418
0.228685
0.206212
0.177594
0.14089
0.0942725
0.0434144
0.0814666
0.122001
0.159197
0.182168
0.196849
0.206807
0.213788
0.218659
0.221062
0.221371
0.220021
0.217418
0.213934
0.209901
0.205605
0.201267
0.197032
0.193153
0.189722
0.186663
0.183934
0.181478
0.179221
0.177075
0.174961
0.172857
0.170494
0.167652
0.164104
0.159582
0.153761
0.146239
0.136523
0.124008
0.107954
0.0873791
0.0596889
0.0169484
0.120819
0.119458
0.143577
0.158393
0.166831
0.171802
0.174747
0.176237
0.176094
0.174603
0.172106
0.168921
0.165331
0.161576
0.15785
0.154294
0.150995
0.148075
0.145597
0.143476
0.141659
0.14009
0.138701
0.13742
0.136184
0.134946
0.133535
0.131791
0.129547
0.126603
0.122718
0.117591
0.110861
0.102098
0.0908207
0.0764674
0.0571659
0.0185237
0.160544
0.126703
0.143101
0.15401
0.159404
0.161696
0.162237
0.161535
0.159563
0.156612
0.153007
0.149038
0.144951
0.140937
0.137143
0.133665
0.130557
0.127878
0.125671
0.123846
0.122342
0.121096
0.120043
0.119117
0.118256
0.117402
0.116433
0.115219
0.113627
0.111494
0.108625
0.10478
0.0996784
0.0930024
0.0844498
0.0738618
0.0616933
0.0784458
0.201463
0.139336
0.150394
0.158907
0.162246
0.162467
0.160954
0.15825
0.154473
0.149972
0.145091
0.140116
0.135269
0.130709
0.126545
0.122837
0.119611
0.116888
0.114688
0.112914
0.111492
0.110358
0.109442
0.108678
0.108003
0.107356
0.106638
0.10574
0.104548
0.102925
0.10071
0.0977078
0.0936947
0.0884423
0.0817915
0.0739054
0.0665698
0.0836434
0.245418
0.15671
0.163729
0.170424
0.171915
0.170073
0.166397
0.161512
0.155697
0.149393
0.142986
0.136765
0.130931
0.125611
0.120877
0.116754
0.113237
0.110314
0.107984
0.106133
0.10468
0.103551
0.102673
0.101977
0.101397
0.10087
0.100309
0.0996214
0.0987058
0.0974458
0.0957047
0.0933224
0.0901256
0.0859579
0.0807774
0.0749888
0.0711426
0.0967531
0.294939
0.179436
0.183075
0.188031
0.187447
0.183207
0.176998
0.169537
0.161297
0.152835
0.14459
0.136855
0.129808
0.123538
0.11807
0.11339
0.109456
0.106232
0.10368
0.101674
0.100119
0.0989306
0.0980311
0.0973466
0.0968083
0.0963504
0.0958945
0.0953561
0.0946457
0.0936622
0.09229
0.0903988
0.087857
0.0845696
0.0805921
0.0765179
0.0754664
0.109342
0.353518
0.208984
0.209235
0.212077
0.208824
0.201583
0.192265
0.181666
0.170487
0.159424
0.148971
0.139422
0.13092
0.123504
0.117147
0.111786
0.107333
0.103725
0.100883
0.0986626
0.0969537
0.0956617
0.0947001
0.0939895
0.0934572
0.0930349
0.0926487
0.0922204
0.0916692
0.0909069
0.0898357
0.0883511
0.0863575
0.0838122
0.080853
0.0782287
0.0795523
0.121061
0.426185
0.247766
0.2436
0.243375
0.236469
0.225371
0.212183
0.197736
0.182992
0.168799
0.155705
0.143998
0.133774
0.125007
0.117604
0.111438
0.106371
0.102307
0.0991164
0.0966319
0.0947278
0.0932963
0.0922413
0.0914765
0.090924
0.0905127
0.0901709
0.0898247
0.0894006
0.0888206
0.0880029
0.0868648
0.0853423
0.083438
0.0813595
0.0799902
0.0833986
0.131976
0.520407
0.29945
0.288064
0.282981
0.270997
0.254947
0.236967
0.217832
0.198793
0.180856
0.164626
0.150371
0.138126
0.127782
0.119163
0.112067
0.10629
0.101701
0.0981051
0.0953119
0.0931758
0.0915741
0.0903995
0.0895573
0.0889636
0.0885439
0.0882268
0.0879417
0.0876203
0.0871938
0.0865935
0.0857566
0.0846462
0.0833043
0.081999
0.081734
0.0870085
0.142177
0.647413
0.369469
0.344954
0.332004
0.31304
0.290757
0.266931
0.242168
0.218016
0.195643
0.175712
0.158468
0.143864
0.131693
0.121672
0.11351
0.106928
0.101741
0.0976835
0.0945377
0.0921347
0.0903345
0.0890167
0.0880768
0.0874241
0.0869796
0.0866712
0.08643
0.086192
0.0858961
0.0854851
0.0849132
0.0841675
0.0833243
0.0827049
0.0834238
0.0903914
0.15175
0.823987
0.465663
0.41692
0.391388
0.3631
0.333216
0.302413
0.271024
0.240876
0.213304
0.189041
0.168306
0.150963
0.136681
0.125054
0.115676
0.108187
0.102325
0.0977476
0.0942043
0.0914997
0.0894736
0.0879903
0.0869342
0.0862065
0.0857229
0.0854093
0.0851975
0.0850271
0.0848429
0.0845979
0.0842612
0.0838408
0.0834431
0.0834374
0.0850415
0.0935616
0.160769
1.07434
0.598625
0.50678
0.461755
0.421471
0.382691
0.343748
0.304727
0.267654
0.234052
0.204755
0.179967
0.159454
0.142743
0.129278
0.118517
0.110018
0.103392
0.0982316
0.0942436
0.0912016
0.0889218
0.0872512
0.0860612
0.0852436
0.0847078
0.0843767
0.084182
0.0840653
0.0839769
0.0838782
0.0837513
0.0836226
0.0836253
0.0841723
0.0865794
0.0965356
0.169299
1.43131
0.780534
0.617396
0.54348
0.488362
0.439607
0.391319
0.343665
0.298697
0.258169
0.22306
0.193587
0.169415
0.149913
0.13435
0.122023
0.112393
0.104908
0.0990943
0.0946106
0.0911934
0.0886315
0.0867516
0.0854101
0.0844884
0.0838882
0.0835284
0.0833395
0.0832645
0.0832579
0.0832885
0.0833493
0.0834834
0.0838476
0.0848952
0.0880363
0.0993316
0.177402
1.94573
1.01928
0.751791
0.637499
0.564416
0.5043
0.445724
0.388375
0.334455
0.286011
0.244222
0.20935
0.180965
0.158259
0.140301
0.126211
0.115305
0.106854
0.100311
0.0952762
0.0914432
0.088569
0.086457
0.0849467
0.0839069
0.0832307
0.0828316
0.0826382
0.0825942
0.0826571
0.0828018
0.0830312
0.0834025
0.0840942
0.0855977
0.0894148
0.10197
0.185138
2.86095
1.32366
0.914407
0.747646
0.652004
0.578479
0.508142
0.4397
0.375549
0.318042
0.268582
0.227494
0.19426
0.167877
0.147184
0.131117
0.118766
0.109228
0.101869
0.0962219
0.0919291
0.0887105
0.0863427
0.0846454
0.0834736
0.0827102
0.0822619
0.0820547
0.0820318
0.082153
0.0823984
0.0827792
0.0833651
0.0843546
0.0862754
0.09072
0.104475
0.192589
0.189014
0.161486
0.156419
0.157733
0.161784
0.167288
0.173688
0.180698
0.188142
0.195909
0.203925
0.212137
0.220506
0.229001
0.237588
0.246229
0.25488
0.263483
0.271971
0.280263
0.28827
0.295895
0.303042
0.309621
0.31556
0.320822
0.325425
0.329475
0.333201
0.337005
0.341506
0.347585
0.356434
0.369617
0.389144
0.417627
0.458504
0.5164
0.597763
0.712111
0.87484
1.11451
1.4939
2.18241
3.74109
7.8195
0.197202
0.161537
0.152645
0.152602
0.15632
0.161996
0.168824
0.176371
0.184378
0.192678
0.201166
0.209774
0.218454
0.227172
0.235898
0.244601
0.253242
0.261776
0.270145
0.278284
0.286118
0.293567
0.300554
0.307008
0.312876
0.318134
0.322807
0.327
0.330933
0.334997
0.339797
0.346191
0.355339
0.36874
0.388308
0.416513
0.456644
0.513141
0.592213
0.702966
0.859759
1.0878
1.43777
2.02865
3.16343
5.47244
0.206973
0.161303
0.14877
0.147476
0.150879
0.156689
0.163864
0.171842
0.180288
0.188993
0.197827
0.206707
0.215581
0.224415
0.233181
0.241853
0.250403
0.258794
0.266981
0.274911
0.282525
0.289761
0.29656
0.302871
0.308663
0.313925
0.318686
0.323035
0.327171
0.33145
0.336443
0.342968
0.352126
0.365338
0.384395
0.411546
0.449812
0.50323
0.577366
0.680171
0.823616
1.02717
1.32599
1.79152
2.57842
3.93515
0.219323
0.161424
0.145459
0.143007
0.146062
0.151884
0.159233
0.167443
0.176122
0.18503
0.194017
0.20299
0.211894
0.220693
0.229363
0.237883
0.246231
0.254379
0.262292
0.269931
0.277248
0.284199
0.290742
0.296849
0.302511
0.307734
0.312548
0.317017
0.321295
0.325689
0.330712
0.337123
0.345952
0.358519
0.376482
0.401843
0.437265
0.486267
0.553597
0.645828
0.772376
0.947445
1.19416
1.55349
2.10063
2.91648
0.235275
0.162455
0.143146
0.139559
0.142165
0.147815
0.155108
0.163305
0.171973
0.180852
0.189778
0.19865
0.207407
0.216013
0.224445
0.232687
0.240719
0.248523
0.25607
0.263331
0.27027
0.276855
0.283061
0.288881
0.294331
0.299443
0.304247
0.308774
0.313118
0.317511
0.3224
0.328473
0.336677
0.348223
0.364611
0.387681
0.419642
0.463477
0.523115
0.603835
0.712867
0.86038
1.06134
1.33878
1.72721
2.24735
0.255712
0.164811
0.142075
0.137271
0.139248
0.144488
0.151469
0.1594
0.167822
0.176456
0.185125
0.193721
0.202177
0.210454
0.218528
0.226385
0.23401
0.241389
0.248499
0.255318
0.26182
0.267981
0.273784
0.279242
0.284399
0.289319
0.294039
0.298554
0.30288
0.307172
0.311801
0.317388
0.3248
0.335144
0.349772
0.370337
0.398678
0.437258
0.489259
0.558866
0.651592
0.774712
0.937915
1.15411
1.43861
1.79311
0.28085
0.168547
0.142253
0.136064
0.137166
0.141737
0.148167
0.155619
0.163607
0.17183
0.180097
0.188291
0.196337
0.204191
0.211828
0.219236
0.226404
0.23332
0.239966
0.246324
0.252377
0.258103
0.26349
0.268555
0.273369
0.278034
0.282602
0.287026
0.291252
0.295361
0.299666
0.304733
0.311363
0.320567
0.333556
0.351783
0.376851
0.410719
0.455941
0.515818
0.594565
0.69743
0.830767
1.00191
1.21745
1.47381
0.309323
0.173257
0.143504
0.135703
0.135654
0.139329
0.145032
0.151868
0.15931
0.167028
0.174816
0.182542
0.190126
0.197519
0.204695
0.211644
0.218358
0.224827
0.231037
0.236974
0.242628
0.24798
0.253014
0.257739
0.262237
0.266638
0.271
0.275243
0.279267
0.283125
0.287108
0.291753
0.297808
0.306189
0.317972
0.334402
0.356942
0.387137
0.427043
0.479245
0.546959
0.633963
0.744465
0.882702
1.0514
1.24611
0.337371
0.178478
0.145671
0.135933
0.13446
0.137089
0.141989
0.148168
0.155038
0.162234
0.169531
0.176787
0.183914
0.190862
0.197606
0.204138
0.210453
0.216544
0.222398
0.228007
0.233368
0.23847
0.243288
0.247823
0.252148
0.256378
0.260528
0.264484
0.268178
0.271722
0.275447
0.279892
0.285752
0.293839
0.305081
0.320505
0.3414
0.369185
0.405522
0.452468
0.512355
0.58773
0.681335
0.795679
0.931794
1.08574
0.358902
0.184475
0.148827
0.136597
0.133452
0.134988
0.139114
0.144681
0.151022
0.157735
0.164578
0.171403
0.178122
0.184681
0.19106
0.197253
0.203259
0.209072
0.214682
0.220092
0.225309
0.230326
0.23512
0.239705
0.244173
0.248553
0.252629
0.256242
0.259481
0.262681
0.266281
0.270836
0.276919
0.285224
0.296606
0.311833
0.332029
0.35894
0.393862
0.43811
0.493269
0.560517
0.641651
0.738487
0.851642
0.977855
0.367013
0.192496
0.15316
0.137611
0.132617
0.133131
0.136593
0.141647
0.147541
0.153844
0.160302
0.166769
0.173157
0.179419
0.18554
0.191516
0.197344
0.203019
0.208546
0.213944
0.21922
0.224343
0.229275
0.234068
0.238896
0.243767
0.248137
0.25152
0.254329
0.257214
0.260729
0.26548
0.272093
0.281228
0.293778
0.309673
0.329443
0.356505
0.393587
0.440186
0.494224
0.555807
0.627662
0.712132
0.808744
0.915456
0.35774
0.20356
0.158494
0.138865
0.132072
0.131769
0.13475
0.139438
0.14501
0.151016
0.157202
0.163421
0.169589
0.175669
0.181654
0.187541
0.193318
0.198974
0.204527
0.210054
0.215573
0.221029
0.226338
0.231624
0.237431
0.243273
0.2483
0.251652
0.254213
0.257061
0.260825
0.265965
0.273014
0.282822
0.296159
0.311877
0.331342
0.358428
0.395281
0.441879
0.500301
0.565216
0.636355
0.717121
0.806392
0.900096
0.338134
0.216906
0.164669
0.140521
0.132078
0.131219
0.133952
0.13848
0.14392
0.149808
0.155898
0.16205
0.168185
0.174287
0.180377
0.186463
0.192515
0.198514
0.204543
0.210272
0.215931
0.221573
0.227166
0.233144
0.243597
0.272707
0.283903
0.283129
0.271738
0.278406
0.323346
0.359667
0.391466
0.42018
0.447901
0.474998
0.501241
0.528237
0.556981
0.583178
0.577777
0.579809
0.638918
0.717634
0.813194
0.911037
0.329106
0.242223
0.167548
0.142334
0.13358
0.132427
0.134947
0.139336
0.144698
0.15056
0.156672
0.162894
0.16916
0.175502
0.182045
0.189038
0.197349
0.211308
0.226814
0.242081
0.256235
0.26939
0.281605
0.293288
0.306326
0.32217
0.336216
0.346161
0.354143
0.368551
0.395374
0.429081
0.463515
0.496394
0.528275
0.559815
0.591122
0.623237
0.657143
0.690039
0.716211
0.743447
0.786092
0.843533
0.898005
0.925885
0.581022
0.321028
0.24183
0.20625
0.181316
0.17003
0.165872
0.16591
0.16871
0.17341
0.179474
0.186572
0.194502
0.20315
0.212456
0.222356
0.232839
0.244009
0.256133
0.269295
0.283173
0.297353
0.311348
0.324918
0.338972
0.355018
0.372018
0.387332
0.400508
0.415091
0.435873
0.463432
0.494681
0.52707
0.559871
0.593296
0.627885
0.665263
0.707678
0.75374
0.798265
0.839534
0.886763
0.948629
1.01662
1.07464
0.908369
0.447526
0.336234
0.263656
0.221663
0.200012
0.189226
0.184847
0.184687
0.187497
0.192501
0.199198
0.207255
0.216442
0.226594
0.237563
0.249203
0.261487
0.274513
0.288372
0.302986
0.318075
0.333273
0.348368
0.363732
0.380185
0.39754
0.414257
0.429469
0.444411
0.461895
0.483682
0.509436
0.538099
0.56912
0.602617
0.639238
0.680405
0.72797
0.781963
0.838835
0.894544
0.952027
1.01979
1.0977
1.17369
0.92923
0.460297
0.361631
0.290745
0.247306
0.222021
0.207958
0.201086
0.199144
0.200774
0.205102
0.21154
0.219677
0.229219
0.239944
0.251662
0.264187
0.277373
0.291196
0.305687
0.320836
0.336509
0.352497
0.36866
0.38509
0.402041
0.419413
0.436473
0.452592
0.468036
0.484092
0.50224
0.523361
0.547842
0.576068
0.608674
0.646577
0.691029
0.743389
0.803945
0.870367
0.939291
1.00984
1.08573
1.16809
1.24873
0.776989
0.395801
0.333981
0.286969
0.253195
0.231183
0.218074
0.211412
0.209496
0.21118
0.215675
0.22242
0.231007
0.241131
0.252558
0.26509
0.278545
0.292754
0.307604
0.323038
0.339008
0.355423
0.372154
0.389089
0.406195
0.423484
0.440841
0.457893
0.474235
0.489811
0.505161
0.521329
0.539551
0.561075
0.587188
0.61926
0.658723
0.70703
0.765449
0.834363
0.912211
0.995278
1.08141
1.17002
1.26024
1.3461
0.671413
0.360799
0.307192
0.272785
0.248137
0.231673
0.221869
0.217287
0.216798
0.21957
0.224989
0.232594
0.242027
0.253012
0.265323
0.278771
0.293182
0.308391
0.324255
0.340655
0.357491
0.374649
0.392002
0.409426
0.426821
0.444108
0.461165
0.477767
0.493659
0.508748
0.523342
0.538283
0.554914
0.574927
0.600236
0.632862
0.67483
0.72804
0.794046
0.873534
0.965511
1.06678
1.17258
1.28025
1.38595
1.48289
0.646062
0.354846
0.291123
0.259541
0.240254
0.228521
0.22232
0.220426
0.221991
0.226402
0.233194
0.242004
0.252539
0.264555
0.277848
0.292235
0.30755
0.323627
0.340312
0.357455
0.374912
0.392533
0.410163
0.427644
0.444837
0.461618
0.477866
0.493437
0.508198
0.522161
0.53567
0.549594
0.565381
0.584988
0.610729
0.645114
0.690695
0.749883
0.824701
0.916308
1.0243
1.1461
1.27684
1.40962
1.53837
1.65438
0.668187
0.361968
0.283605
0.250395
0.233418
0.224771
0.221442
0.221995
0.225611
0.231752
0.240032
0.250146
0.261843
0.274906
0.289143
0.304377
0.32044
0.337164
0.35438
0.371915
0.389594
0.407233
0.424643
0.441638
0.458049
0.473738
0.488598
0.502559
0.515623
0.527973
0.540128
0.553109
0.568519
0.588517
0.615689
0.652897
0.703114
0.769225
0.853742
0.958332
1.08316
1.2262
1.38282
1.54561
1.70382
1.84536
0.719939
0.374568
0.281363
0.245009
0.228576
0.221622
0.220236
0.222665
0.227991
0.235661
0.245296
0.256609
0.26936
0.283343
0.298367
0.314252
0.330822
0.347898
0.365296
0.382821
0.40027
0.417433
0.434095
0.450051
0.465123
0.479181
0.492158
0.504077
0.515098
0.525607
0.536348
0.548551
0.564004
0.58504
0.614451
0.655361
0.711083
0.784907
0.879788
0.997846
1.13969
1.3037
1.48547
1.67746
1.86835
2.04149
0.789244
0.388557
0.281891
0.242222
0.22548
0.219297
0.219082
0.222795
0.229389
0.238249
0.248968
0.261243
0.274828
0.289505
0.305075
0.321347
0.338131
0.35523
0.372443
0.389553
0.406338
0.422565
0.438008
0.452458
0.465748
0.477782
0.488564
0.498232
0.507116
0.515819
0.525315
0.537048
0.552986
0.575619
0.607907
0.653191
0.715065
0.797177
0.90287
1.03464
1.19343
1.37783
1.58357
1.80306
2.02487
2.23175
0.866497
0.401654
0.28357
0.241002
0.223632
0.217686
0.218094
0.222598
0.230033
0.239715
0.251194
0.264137
0.278274
0.293369
0.309204
0.325569
0.342257
0.359051
0.37573
0.392062
0.407806
0.422722
0.436583
0.449193
0.460421
0.470229
0.478712
0.486141
0.493021
0.500157
0.508733
0.520381
0.537226
0.561892
0.597482
0.647524
0.715872
0.806499
0.923108
1.06854
1.24398
1.4482
1.677
1.92291
2.17468
2.41501
0.94469
0.412855
0.285548
0.240672
0.222624
0.21663
0.217299
0.222219
0.230134
0.240298
0.252217
0.265524
0.279919
0.295142
0.310954
0.327122
0.343418
0.359608
0.375452
0.390704
0.405117
0.418452
0.430495
0.441084
0.450139
0.457698
0.463962
0.46934
0.474497
0.480415
0.488448
0.500377
0.518445
0.545381
0.58441
0.639231
0.713944
0.812841
0.93999
1.09859
1.29012
1.51358
1.76497
2.03719
2.31977
2.59623
1.01919
0.42193
0.287478
0.24086
0.222191
0.216006
0.216704
0.221769
0.229876
0.240232
0.252304
0.265691
0.280068
0.295149
0.310669
0.326377
0.342022
0.357355
0.372123
0.386072
0.398957
0.410551
0.420668
0.429192
0.436107
0.44154
0.445798
0.449417
0.453199
0.458265
0.46609
0.478556
0.497982
0.527172
0.569447
0.628665
0.709165
0.815571
0.952357
1.12315
1.32986
1.57184
1.84549
2.14451
2.46
2.77776
1.08714
0.429032
0.289267
0.241376
0.222172
0.215729
0.216307
0.221321
0.2294
0.239713
0.251696
0.264922
0.27904
0.293741
0.308739
0.323764
0.338549
0.352831
0.366349
0.378852
0.390102
0.399897
0.40809
0.414618
0.419537
0.423061
0.425597
0.427786
0.430536
0.435059
0.442905
0.456006
0.476717
0.507879
0.55289
0.615747
0.70103
0.813718
0.958756
1.14032
1.36089
1.62035
1.91571
2.2418
2.59221
2.9571
1.14689
0.434485
0.290919
0.24211
0.222454
0.215722
0.216085
0.220912
0.228797
0.238886
0.250588
0.263456
0.277117
0.291245
0.305537
0.319706
0.333474
0.346571
0.358735
0.369722
0.379313
0.387337
0.393693
0.398374
0.40151
0.403391
0.404509
0.405582
0.407585
0.41178
0.419743
0.43341
0.455134
0.487763
0.534741
0.600191
0.68893
0.806323
0.957859
1.14839
1.38111
1.65659
1.97253
2.32501
2.71087
3.12699
1.1977
0.438611
0.292444
0.242972
0.222934
0.215903
0.215992
0.220537
0.228111
0.237839
0.249114
0.261471
0.274525
0.287933
0.301382
0.314574
0.327224
0.33906
0.349828
0.359296
0.367271
0.373619
0.378283
0.381319
0.382916
0.383431
0.383416
0.383636
0.385099
0.389073
0.397121
0.411146
0.433463
0.466897
0.514913
0.581734
0.672411
0.792714
0.948747
1.14616
1.389
1.6786
2.01332
2.39032
2.80976
3.27721
1.23946
0.441722
0.293824
0.243861
0.223497
0.216171
0.215953
0.220157
0.227339
0.236609
0.247352
0.259091
0.271429
0.284018
0.296533
0.308674
0.320155
0.330708
0.34009
0.34809
0.354543
0.359354
0.362512
0.364124
0.364431
0.36384
0.362935
0.362504
0.36355
0.367318
0.375321
0.389402
0.411808
0.445313
0.493373
0.560288
0.651319
0.772652
0.931052
1.13306
1.38374
1.68527
2.03651
2.43518
2.88397
3.39756
1.27258
0.444124
0.295004
0.244654
0.224014
0.21641
0.215876
0.219704
0.226443
0.235195
0.245336
0.256386
0.267941
0.279649
0.291183
0.302244
0.312549
0.321841
0.329892
0.336514
0.341576
0.345016
0.346869
0.347281
0.346534
0.345061
0.343463
0.342519
0.343205
0.346712
0.354483
0.368275
0.390247
0.423094
0.470233
0.536005
0.625851
0.746352
0.904956
1.10919
1.36526
1.67633
2.04169
2.4589
2.93153
3.48162
1.2979
0.446119
0.295883
0.245205
0.224346
0.216496
0.215652
0.219095
0.225365
0.233565
0.243066
0.253387
0.264126
0.274927
0.28547
0.295457
0.304616
0.312703
0.31951
0.324875
0.328695
0.330945
0.331693
0.331119
0.329528
0.327364
0.325221
0.323853
0.324186
0.327339
0.334668
0.347835
0.368885
0.40041
0.445762
0.509278
0.596523
0.714426
0.871109
1.07513
1.334
1.65212
2.02926
2.4623
2.95368
3.52914
1.31525
0.447542
0.296121
0.245281
0.224315
0.216285
0.215165
0.218234
0.224034
0.231669
0.240516
0.250096
0.26001
0.269909
0.279477
0.288428
0.296501
0.303469
0.309146
0.313393
0.316136
0.317379
0.317216
0.315847
0.313587
0.310879
0.308295
0.30655
0.306511
0.309218
0.315927
0.328174
0.34788
0.37751
0.420368
0.48069
0.564089
0.67778
0.830506
1.03185
1.29077
1.6132
1.9998
2.44661
2.95323
3.54432
1.32292
0.446842
0.295319
0.244666
0.223758
0.215636
0.214289
0.217012
0.222358
0.229439
0.237642
0.246493
0.255602
0.264628
0.273268
0.281245
0.288316
0.294272
0.298945
0.302222
0.304052
0.30446
0.30356
0.301561
0.298779
0.29564
0.292686
0.290583
0.290133
0.292294
0.298223
0.309339
0.327434
0.354831
0.394621
0.450955
0.52942
0.637497
0.784398
0.980572
1.23652
1.56005
1.95334
2.41196
2.93163
3.53083
1.32158
0.443937
0.293373
0.243263
0.222576
0.214452
0.212935
0.215349
0.220269
0.226821
0.234404
0.242556
0.250898
0.259103
0.266877
0.273961
0.280128
0.285185
0.288987
0.29144
0.292512
0.292245
0.290763
0.288276
0.285091
0.281612
0.278342
0.275894
0.275
0.276534
0.281552
0.291358
0.307611
0.332483
0.368894
0.420837
0.493781
0.595098
0.734292
0.922699
1.17224
1.49281
1.88916
2.35668
2.88712
3.48884
1.3119
0.438907
0.290273
0.241028
0.220715
0.212677
0.211045
0.213191
0.217718
0.223774
0.230772
0.238266
0.245893
0.253336
0.26032
0.2666
0.271965
0.276242
0.279303
0.28107
0.281528
0.28073
0.278801
0.275949
0.272464
0.268721
0.265184
0.262408
0.261054
0.261913
0.26594
0.274322
0.288577
0.310713
0.343454
0.390578
0.457344
0.550987
0.681108
0.859633
1.09979
1.41354
1.80749
2.27872
2.81571
3.41442
1.29454
0.431882
0.286055
0.237961
0.218156
0.210279
0.208584
0.210502
0.214673
0.22027
0.226725
0.23361
0.240577
0.247327
0.2536
0.259166
0.263834
0.267445
0.269887
0.271099
0.271073
0.269869
0.267613
0.264502
0.260806
0.25687
0.253114
0.250037
0.248232
0.248406
0.251416
0.25833
0.270521
0.289816
0.318714
0.360711
0.420746
0.50574
0.625118
0.791021
1.01762
1.31884
1.70402
2.17251
2.71139
3.30538
1.27022
0.423035
0.280785
0.234089
0.214904
0.207254
0.205542
0.20727
0.211121
0.216296
0.222251
0.228578
0.234945
0.241071
0.246711
0.251655
0.255724
0.258777
0.260715
0.261487
0.261095
0.259599
0.257119
0.253842
0.250016
0.245951
0.242027
0.238689
0.236464
0.235979
0.237994
0.243462
0.253609
0.270067
0.295084
0.331822
0.38479
0.460404
0.567605
0.718286
0.927022
1.20927
1.57725
2.03361
2.56606
3.15058
1.23977
0.412572
0.274559
0.229464
0.210991
0.203621
0.201927
0.203498
0.207062
0.211853
0.217352
0.22317
0.228996
0.234565
0.23965
0.244055
0.247619
0.250213
0.251749
0.252186
0.25153
0.249839
0.247227
0.243866
0.239981
0.235852
0.231815
0.228267
0.225672
0.224583
0.225669
0.229768
0.23796
0.251683
0.272914
0.304442
0.350265
0.416132
0.5102
0.643634
0.830731
1.08777
1.42957
1.86306
2.37954
2.95077
1.20405
0.400729
0.267498
0.224162
0.206469
0.199415
0.19777
0.199209
0.202515
0.206956
0.212039
0.217396
0.222735
0.227811
0.232411
0.236357
0.239499
0.241722
0.242949
0.243142
0.24231
0.240509
0.237845
0.234472
0.230593
0.226459
0.222368
0.218669
0.21577
0.214154
0.214407
0.217256
0.223641
0.234806
0.252457
0.278992
0.31785
0.374001
0.454586
0.569598
0.73233
0.958907
1.26587
1.66474
2.15354
2.70788
1.16401
0.387762
0.259737
0.218274
0.201405
0.194693
0.193113
0.194442
0.197514
0.201634
0.206336
0.211276
0.216179
0.220819
0.224999
0.228555
0.23135
0.23328
0.234274
0.234302
0.23337
0.231532
0.228882
0.22556
0.221747
0.217666
0.213579
0.209792
0.206664
0.204613
0.204147
0.205895
0.21066
0.219503
0.233866
0.255763
0.288064
0.334915
0.402299
0.498721
0.635819
0.828461
1.09345
1.44567
1.89088
2.41517
1.12059
0.373938
0.251424
0.211906
0.195882
0.189521
0.188017
0.189247
0.192103
0.195927
0.20028
0.20484
0.209353
0.213607
0.217423
0.220649
0.223162
0.224864
0.225694
0.225621
0.224653
0.222838
0.22026
0.217043
0.213348
0.209371
0.205344
0.201535
0.198255
0.195868
0.19481
0.195617
0.198972
0.205765
0.217193
0.234908
0.26124
0.299525
0.35457
0.433239
0.5451
0.702835
0.921843
1.21809
1.60318
2.07561
1.07473
0.359528
0.242716
0.20517
0.189992
0.183979
0.18255
0.183687
0.18634
0.189887
0.193917
0.19813
0.20229
0.206202
0.209702
0.21265
0.214933
0.216463
0.217183
0.217063
0.216112
0.214368
0.211909
0.208842
0.205309
0.201484
0.197569
0.193799
0.190444
0.187819
0.186295
0.18633
0.188493