/*--------------------------------*- C++ -*----------------------------------*\
  =========                 |
  \\      /  F ield         | OpenFOAM: The Open Source CFD Toolbox
   \\    /   O peration     | Website:  https://openfoam.org
    \\  /    A nd           | Version:  7
     \\/     M anipulation  |
\*---------------------------------------------------------------------------*/
FoamFile
{
    version     2.0;
    format      ascii;
    class       volScalarField;
    location    "0.3";
    object      k;
}
// * * * * * * * * * * * * * * * * * * * * * * * * * * * * * * * * * * * * * //

dimensions      [0 2 -2 0 0 0 0];

internalField   nonuniform List<scalar> 
9072
(
0.00298744
0.00574518
0.00899444
0.0115728
0.0137428
0.0155417
0.0171247
0.0185744
0.0199494
0.0212917
0.0226308
0.0239866
0.0253714
0.026792
0.02825
0.0297431
0.0312653
0.0328068
0.0343551
0.0358945
0.0374066
0.0388707
0.0402641
0.0415626
0.042741
0.0437738
0.0446363
0.0453048
0.0457578
0.0459756
0.0459395
0.0456194
0.0450716
0.0443288
0.0433342
0.0420615
0.0404936
0.0386194
0.036447
0.0340379
0.0315103
0.0291035
0.0275477
0.0246686
0.0225596
0.0202641
0.00471428
0.0122337
0.0186906
0.0239233
0.0280968
0.0315856
0.0346198
0.0373691
0.0399567
0.0424691
0.0449649
0.0474824
0.0500442
0.0526613
0.0553348
0.0580582
0.0608175
0.0635929
0.066359
0.0690855
0.0717377
0.0742777
0.0766652
0.0788586
0.0808167
0.0825003
0.0838743
0.0849103
0.0855884
0.0859003
0.085851
0.0854519
0.0846714
0.0836069
0.0823377
0.0809658
0.0796196
0.078468
0.0777349
0.0776728
0.0782758
0.0780446
0.0746965
0.0637972
0.0477027
0.0347376
0.00561798
0.0156137
0.0232832
0.0295416
0.0347049
0.0390716
0.0428884
0.0463515
0.0496087
0.052765
0.0558922
0.0590369
0.0622263
0.0654732
0.0687785
0.0721334
0.0755207
0.078916
0.0822884
0.0856016
0.0888144
0.0918819
0.0947569
0.0973912
0.099738
0.101754
0.103402
0.104654
0.105498
0.105936
0.105991
0.105707
0.105123
0.104343
0.103479
0.102654
0.101991
0.101598
0.1016
0.102206
0.103596
0.104544
0.101933
0.0927852
0.0711166
0.0449012
0.00659651
0.0180951
0.0264368
0.0333189
0.0390963
0.0440432
0.0484017
0.0523735
0.0561144
0.0597376
0.0633208
0.0669148
0.0705489
0.0742365
0.0779777
0.0817622
0.0855707
0.0893757
0.0931434
0.0968339
0.100402
0.1038
0.106976
0.109879
0.11246
0.114675
0.116488
0.117875
0.11883
0.119368
0.119532
0.119391
0.119038
0.118617
0.118282
0.118186
0.118452
0.11912
0.120134
0.121399
0.122838
0.123598
0.120994
0.113558
0.0964534
0.0560241
0.00761814
0.0202006
0.0290152
0.0362856
0.0424713
0.047839
0.0526173
0.0570009
0.0611434
0.0651584
0.069125
0.0730947
0.0770972
0.0811456
0.085239
0.0893657
0.0935046
0.0976266
0.101695
0.105669
0.1095
0.113138
0.116531
0.119624
0.12237
0.124723
0.12665
0.128133
0.129173
0.1298
0.130072
0.130086
0.129969
0.129908
0.130092
0.130709
0.131882
0.133606
0.135688
0.137764
0.139423
0.139934
0.137623
0.131969
0.118024
0.0679592
0.00854507
0.0221085
0.0312641
0.0387798
0.0452426
0.050926
0.0560444
0.0607789
0.0652745
0.0696397
0.0739509
0.0782577
0.0825885
0.0869551
0.0913555
0.0957767
0.100196
0.104584
0.108901
0.113106
0.117148
0.120977
0.124539
0.12778
0.130651
0.13311
0.135127
0.136688
0.137804
0.138516
0.138901
0.139077
0.139202
0.139495
0.140179
0.141465
0.143484
0.1462
0.149331
0.152338
0.154556
0.155262
0.153608
0.149794
0.138144
0.0792129
0.00936159
0.0238159
0.0332461
0.040932
0.0475934
0.0535234
0.0589266
0.0639695
0.0687848
0.0734724
0.0781029
0.082722
0.0873557
0.0920135
0.0966921
0.101377
0.106045
0.110665
0.115197
0.119599
0.12382
0.127808
0.13151
0.134873
0.137848
0.140395
0.142487
0.144119
0.145308
0.146107
0.14661
0.146956
0.147328
0.147969
0.149132
0.151046
0.153849
0.157492
0.161646
0.165674
0.16876
0.170157
0.16952
0.167382
0.157202
0.0900263
0.0100755
0.0252959
0.0349652
0.042791
0.0496119
0.0557483
0.0614004
0.0667218
0.0718324
0.0768217
0.0817527
0.0866659
0.0915836
0.0965127
0.101448
0.106375
0.111268
0.116095
0.120818
0.125393
0.129769
0.133895
0.137717
0.141184
0.144248
0.146872
0.149034
0.150732
0.151994
0.152885
0.153513
0.154035
0.154657
0.155639
0.15726
0.159764
0.163299
0.167814
0.172969
0.178091
0.182291
0.184795
0.185475
0.184825
0.175369
0.101717
0.010667
0.0265375
0.0364181
0.0443768
0.0513447
0.0576689
0.0635496
0.0691303
0.0745187
0.0797936
0.0850098
0.0902017
0.0953874
0.100571
0.105746
0.110895
0.115994
0.12101
0.125905
0.130633
0.135147
0.139393
0.143321
0.14688
0.150023
0.152718
0.154945
0.15671
0.158048
0.159034
0.159792
0.160494
0.161367
0.162681
0.164738
0.167798
0.172017
0.177359
0.183498
0.18977
0.195274
0.199208
0.201456
0.202164
0.192781
0.112116
0.0111566
0.0275499
0.0376116
0.0457051
0.0528223
0.0593305
0.0654311
0.0712598
0.0769135
0.0824611
0.0879491
0.093406
0.0988452
0.104268
0.109666
0.115022
0.12031
0.125497
0.130546
0.135413
0.140048
0.144403
0.148424
0.152065
0.155281
0.158042
0.160333
0.162165
0.163581
0.164667
0.165558
0.166443
0.167562
0.169198
0.171671
0.175251
0.180112
0.186239
0.193341
0.200801
0.207748
0.213363
0.217408
0.21946
0.209792
0.122302
0.0115621
0.0283541
0.0385646
0.0467961
0.0540713
0.0607679
0.067087
0.0731578
0.079068
0.0848776
0.0906253
0.0963337
0.102012
0.10766
0.113266
0.118812
0.124272
0.129615
0.134803
0.139793
0.144538
0.148988
0.153093
0.156808
0.160092
0.162915
0.165269
0.16717
0.168667
0.169857
0.170884
0.171949
0.173308
0.175255
0.178119
0.182185
0.187645
0.194513
0.202551
0.211213
0.219696
0.227179
0.233245
0.236772
0.226854
0.132831
0.0118974
0.0289769
0.0393051
0.0476768
0.0551197
0.0620119
0.0685517
0.0748616
0.0810216
0.0870833
0.0930789
0.0990255
0.104929
0.110785
0.116583
0.122304
0.127922
0.133405
0.138718
0.143817
0.148658
0.153193
0.157374
0.161156
0.164502
0.167387
0.169804
0.171774
0.173355
0.17465
0.175814
0.177058
0.178649
0.180889
0.18412
0.188636
0.194648
0.202209
0.211141
0.22099
0.23105
0.24053
0.248841
0.254132
0.244507
0.144108
0.0121775
0.0294481
0.0398669
0.0483793
0.055998
0.0630926
0.0698554
0.0764022
0.0828053
0.0891095
0.0953408
0.101512
0.107625
0.113675
0.119649
0.125528
0.131287
0.136896
0.142318
0.147514
0.152439
0.157048
0.161296
0.165139
0.168544
0.171487
0.173967
0.176009
0.177676
0.179078
0.180379
0.181798
0.183611
0.186127
0.189697
0.194625
0.201141
0.209336
0.219103
0.230089
0.241709
0.253245
0.263998
0.271509
0.263429
0.156616
0.0124173
0.0297983
0.0402863
0.0489388
0.0567383
0.0640396
0.071026
0.0778061
0.0844448
0.0909807
0.0974346
0.103815
0.110122
0.116349
0.122482
0.128503
0.134387
0.140105
0.145623
0.150902
0.155899
0.160573
0.164879
0.168778
0.172237
0.175238
0.177782
0.179897
0.181652
0.183163
0.184599
0.186189
0.188212
0.190985
0.194865
0.200165
0.207131
0.215895
0.226416
0.238451
0.251545
0.265102
0.278418
0.28874
0.284369
0.170955
0.0126317
0.0300582
0.0405995
0.0493914
0.0573735
0.0648818
0.0720893
0.0790964
0.0859613
0.0927165
0.0993784
0.105952
0.112437
0.118823
0.125098
0.131243
0.137236
0.143047
0.148645
0.153993
0.159052
0.163779
0.168136
0.172084
0.175595
0.178652
0.18126
0.183451
0.185297
0.186918
0.188489
0.190243
0.192465
0.195476
0.199637
0.205267
0.212629
0.221885
0.233062
0.246015
0.260427
0.275846
0.291675
0.305405
0.307407
0.1878
0.0128348
0.0302571
0.0408405
0.0497712
0.0579348
0.0656468
0.0730691
0.0802939
0.0873727
0.0943326
0.101186
0.107936
0.114579
0.121106
0.127505
0.133757
0.13984
0.145729
0.151393
0.156796
0.161903
0.166674
0.171073
0.175065
0.178624
0.181737
0.18441
0.18668
0.188619
0.190352
0.192058
0.193972
0.196382
0.19961
0.204026
0.209946
0.217644
0.227312
0.23903
0.252739
0.268238
0.285218
0.303235
0.320606
0.331053
0.208975
0.00491446
0.0124439
0.017606
0.0212135
0.0238333
0.0257906
0.0272701
0.0283709
0.0290774
0.0294487
0.0295417
0.0294071
0.0290936
0.0286475
0.0281116
0.0275231
0.0269081
0.0263146
0.0257622
0.0252483
0.0247733
0.0243334
0.0239208
0.0235249
0.0231345
0.0227468
0.0223299
0.0218535
0.0212884
0.0206002
0.0197473
0.0186789
0.0173321
0.0156262
0.013455
0.0106716
0.00713865
0.00558062
0.00799473
0.0179464
0.0240066
0.0281291
0.0311067
0.0333531
0.035076
0.0363567
0.0372111
0.0376904
0.0378461
0.0377281
0.0373877
0.0368761
0.0362432
0.0355345
0.0347868
0.034047
0.033353
0.0327049
0.032105
0.0315503
0.0310325
0.0305389
0.0300543
0.0295645
0.0290437
0.0284589
0.0277762
0.0269564
0.0259523
0.0247062
0.023146
0.0211773
0.0186691
0.0154169
0.0110481
0.00711462
0.010405
0.0224326
0.0292646
0.0338269
0.0370532
0.0394542
0.0412812
0.04263
0.0435307
0.0440307
0.0441796
0.0440278
0.043629
0.0430376
0.042308
0.0414906
0.040629
0.0397693
0.0389595
0.0382029
0.0375029
0.0368569
0.036256
0.035686
0.0351289
0.0345648
0.033967
0.0333001
0.0325268
0.0316032
0.0304775
0.0290858
0.0273485
0.0251606
0.0223748
0.0187523
0.0137695
0.00778053
0.0125823
0.026477
0.0340074
0.0389398
0.042334
0.0447981
0.0466403
0.0479769
0.0488497
0.0493073
0.0493994
0.0491776
0.0486966
0.048013
0.0471831
0.0462604
0.0452925
0.0443251
0.0434117
0.0425584
0.0417695
0.0410428
0.0403689
0.0397322
0.0391129
0.0384872
0.0378264
0.0370933
0.0362472
0.0352413
0.0340196
0.032514
0.0306394
0.0282844
0.0252918
0.0214066
0.0160498
0.00778428
0.0146433
0.0304122
0.038631
0.0438913
0.0473974
0.0498601
0.0516491
0.0529057
0.0536863
0.0540454
0.054035
0.0537078
0.0531192
0.0523261
0.0513859
0.0503531
0.0492773
0.0482048
0.0471909
0.046244
0.0453693
0.0445649
0.043821
0.0431209
0.0424429
0.0417608
0.0410436
0.0402522
0.0393436
0.038268
0.0369668
0.0353686
0.0333846
0.0308987
0.0277474
0.0236633
0.0180308
0.00813618
0.0167064
0.0344639
0.0433985
0.0489543
0.0525167
0.0549134
0.0565816
0.0576895
0.0583133
0.0585171
0.0583569
0.0578866
0.0571614
0.0562379
0.0551727
0.0540202
0.0528303
0.0516501
0.0505343
0.0494928
0.0485318
0.0476493
0.046835
0.0460716
0.0453358
0.0445991
0.0438285
0.0429832
0.0420179
0.0408809
0.0395111
0.0378349
0.0357607
0.033169
0.0298905
0.0256423
0.0197425
0.00896256
0.0188877
0.0388352
0.0485235
0.0543352
0.0578838
0.0601392
0.0616118
0.0624966
0.0628949
0.0628833
0.0625227
0.0618683
0.0609745
0.0598961
0.0586879
0.0574028
0.0560893
0.0547959
0.0535742
0.0524351
0.051385
0.0504221
0.0495357
0.0487075
0.047913
0.0471219
0.0462989
0.0454019
0.0443838
0.0431907
0.0417601
0.0400162
0.0378655
0.0351853
0.0318003
0.0274095
0.0212563
0.00972487
0.0213154
0.0437454
0.054205
0.0602079
0.0636487
0.0656714
0.0668634
0.0674437
0.0675426
0.0672511
0.0666359
0.0657531
0.0646553
0.0633945
0.0620225
0.0605892
0.0591407
0.0577265
0.0563931
0.0551516
0.0540085
0.0529617
0.0520002
0.0511049
0.0502499
0.0494033
0.0485281
0.0475805
0.0465117
0.0452664
0.0437803
0.0419764
0.039759
0.0370027
0.0335254
0.0290059
0.0226143
0.0104089
0.0241469
0.0494552
0.0606407
0.0667236
0.069931
0.0716123
0.0724288
0.0726166
0.0723378
0.0716983
0.0707709
0.0696119
0.0682717
0.0667983
0.0652391
0.0636399
0.062043
0.0604989
0.0590465
0.0576968
0.0564556
0.0553207
0.0542804
0.0533148
0.0523968
0.0514933
0.0505652
0.0495672
0.0484491
0.0471541
0.0456165
0.043758
0.0414813
0.0386577
0.0350979
0.0304598
0.0238442
0.0110265
0.0275877
0.0562854
0.0680249
0.0740048
0.0768176
0.0780347
0.0783744
0.0780791
0.0773423
0.0762847
0.0749845
0.0734989
0.0718749
0.070156
0.068384
0.0665992
0.064839
0.0631543
0.0615744
0.0601094
0.0587645
0.0575365
0.0564131
0.0553737
0.0543899
0.0534273
0.052445
0.0513963
0.0502296
0.0488866
0.0473005
0.0453915
0.0430607
0.0401763
0.0365409
0.031792
0.0249658
0.0115886
0.0319106
0.0646328
0.0765348
0.0821286
0.0843532
0.0849783
0.0847406
0.0838748
0.0826023
0.0810565
0.079322
0.0774569
0.0755055
0.0735057
0.0714929
0.0695008
0.0675616
0.0657241
0.0640071
0.062419
0.0609637
0.0596371
0.0584259
0.0573086
0.0562557
0.0552316
0.0541936
0.0530934
0.0518782
0.0504883
0.0488557
0.0468994
0.0445186
0.0415779
0.0378722
0.0330187
0.0259946
0.0121041
0.0374719
0.0749717
0.0863071
0.0911047
0.0925276
0.0924445
0.0915391
0.0900273
0.0881493
0.0860494
0.0838198
0.0815214
0.0791967
0.0768786
0.074595
0.0723721
0.0702372
0.0682332
0.0663682
0.0646484
0.0630755
0.0616441
0.06034
0.0591404
0.0580149
0.0569265
0.0558309
0.0546783
0.0534143
0.0519782
0.0503005
0.048299
0.0458711
0.0428778
0.0391058
0.0341532
0.0269428
0.01258
0.0447088
0.0878115
0.09741
0.100858
0.10127
0.100396
0.0987534
0.0965412
0.0940019
0.0912895
0.088507
0.0857217
0.0829769
0.0803009
0.0777147
0.0752352
0.0728883
0.0707023
0.0686773
0.066816
0.0651176
0.0635749
0.0621723
0.0608857
0.0596836
0.0585281
0.0573727
0.0561664
0.0548532
0.053371
0.0516493
0.0496044
0.0471315
0.0440882
0.0402531
0.0352063
0.0278208
0.0130222
0.0541051
0.103546
0.10982
0.111236
0.110462
0.10877
0.106345
0.103405
0.100167
0.0967943
0.0934066
0.0900827
0.0868702
0.0837956
0.080873
0.0781107
0.075533
0.0731482
0.0709502
0.068937
0.0671047
0.0654435
0.0639363
0.0625577
0.061275
0.0600491
0.0588319
0.0575704
0.0562073
0.054679
0.0529138
0.0508266
0.0483106
0.0452193
0.041324
0.0361876
0.0286375
0.0134354
0.0663505
0.122065
0.123414
0.122073
0.119983
0.117454
0.114272
0.110601
0.106643
0.102575
0.0985364
0.0946249
0.0908976
0.0873825
0.0840885
0.0810169
0.0781871
0.0755859
0.0732007
0.0710243
0.0690487
0.0672614
0.0656432
0.0641673
0.0627996
0.0615001
0.0602187
0.0589006
0.0574866
0.0559121
0.0541038
0.0519752
0.0494173
0.0462798
0.0423267
0.0371054
0.0294008
0.0138242
0.0857256
0.143406
0.138002
0.133362
0.129822
0.126443
0.122524
0.118122
0.113429
0.108638
0.10391
0.0993659
0.0950777
0.0910792
0.0873769
0.0839706
0.0808648
0.0780279
0.0754403
0.0730885
0.0709598
0.0690384
0.0673025
0.0657235
0.0642661
0.0628897
0.061542
0.0601654
0.0586996
0.0570784
0.0552273
0.053058
0.0504592
0.047277
0.0432687
0.0379669
0.0301183
0.0141938
0.0130587
0.0304514
0.0410943
0.050219
0.0586372
0.0666376
0.0743661
0.0819013
0.0892839
0.096533
0.103655
0.110649
0.11751
0.124228
0.130791
0.137183
0.143384
0.14937
0.155115
0.160587
0.165753
0.17058
0.175035
0.179089
0.182722
0.185925
0.188708
0.19111
0.193209
0.195133
0.197064
0.199241
0.201953
0.205518
0.210292
0.216603
0.224737
0.234917
0.247287
0.261888
0.278648
0.297399
0.317831
0.339169
0.355675
0.269162
0.0134354
0.0307132
0.0414765
0.050867
0.0596036
0.0679492
0.0760324
0.0839168
0.091631
0.0991853
0.106581
0.113814
0.120878
0.127765
0.134464
0.140962
0.147242
0.153286
0.159071
0.164571
0.169761
0.174612
0.1791
0.183204
0.186911
0.190218
0.193139
0.195714
0.198021
0.200183
0.202384
0.204858
0.207888
0.211782
0.216845
0.223411
0.23176
0.242121
0.254651
0.269409
0.286315
0.305092
0.325112
0.344899
0.357889
0.320677
0.0138797
0.0310671
0.0420296
0.0516837
0.0606927
0.069314
0.0776676
0.0858077
0.0937549
0.101514
0.109083
0.116457
0.123629
0.130593
0.137341
0.143863
0.150145
0.156173
0.16193
0.167396
0.172551
0.177373
0.181847
0.185958
0.189703
0.193085
0.19612
0.198844
0.201326
0.203683
0.206087
0.208764
0.211985
0.216042
0.22122
0.227815
0.236088
0.246248
0.258431
0.272665
0.288803
0.306415
0.324589
0.341491
0.352615
0.341509
0.0144326
0.0316182
0.0428623
0.0527572
0.0619686
0.0707724
0.0792918
0.0875778
0.0956475
0.103503
0.111142
0.118557
0.125745
0.1327
0.139414
0.145883
0.152096
0.158042
0.163709
0.169082
0.174146
0.178887
0.183296
0.187369
0.191109
0.194528
0.197643
0.200482
0.203098
0.205591
0.208118
0.21089
0.214165
0.218219
0.223322
0.229726
0.237664
0.247316
0.258786
0.27207
0.286984
0.303051
0.31934
0.3342
0.344759
0.344302
0.0151324
0.032446
0.044028
0.054107
0.0634246
0.072299
0.0808669
0.0891824
0.0972628
0.10511
0.112719
0.120086
0.127205
0.134072
0.140682
0.147032
0.153115
0.158923
0.164448
0.169678
0.174604
0.179217
0.183515
0.187501
0.191192
0.194607
0.197765
0.200681
0.203387
0.205958
0.208529
0.211297
0.214505
0.218414
0.223281
0.229333
0.23676
0.245711
0.256266
0.268405
0.28195
0.296463
0.311131
0.324623
0.334994
0.339134
0.0160053
0.0336041
0.0455157
0.0556787
0.0649834
0.0738074
0.082307
0.0905428
0.0985334
0.10628
0.113777
0.121019
0.128002
0.13472
0.141171
0.147352
0.153259
0.158889
0.164233
0.169286
0.17404
0.178493
0.182643
0.186505
0.190104
0.193475
0.196638
0.199594
0.202346
0.204941
0.207493
0.210183
0.213241
0.21692
0.221464
0.227085
0.233934
0.242127
0.251723
0.262703
0.274918
0.288006
0.3013
0.313765
0.324018
0.330319
0.0170439
0.035089
0.0472277
0.0573382
0.0665045
0.0751664
0.0834996
0.0915692
0.0993936
0.106972
0.114297
0.121363
0.128161
0.13469
0.140946
0.146928
0.152636
0.158065
0.163212
0.168073
0.172643
0.176922
0.180911
0.184626
0.188106
0.191401
0.194536
0.197495
0.20025
0.202823
0.20531
0.207885
0.210772
0.214213
0.218441
0.223653
0.229975
0.237484
0.246222
0.256171
0.26722
0.279081
0.291221
0.302836
0.312902
0.320237
0.0181761
0.0367844
0.0489656
0.0588834
0.06781
0.0762331
0.0843393
0.0921929
0.0998085
0.107182
0.114303
0.121164
0.127758
0.134079
0.140126
0.145902
0.151406
0.156637
0.161592
0.166269
0.170668
0.174788
0.178631
0.182211
0.185572
0.188778
0.191861
0.19478
0.197488
0.199995
0.202394
0.204863
0.207622
0.210903
0.21492
0.219842
0.225788
0.232793
0.240882
0.250035
0.26016
0.271021
0.282184
0.293022
0.302759
0.310505
0.0192458
0.0384212
0.0504506
0.0600863
0.0687333
0.0769003
0.084771
0.0924024
0.0998032
0.106966
0.113878
0.120532
0.12692
0.133037
0.138885
0.144466
0.149784
0.154837
0.159625
0.164148
0.16841
0.172411
0.176151
0.179639
0.182924
0.186073
0.189099
0.191935
0.194535
0.196929
0.199239
0.201653
0.20439
0.207659
0.211639
0.216452
0.222193
0.228904
0.236594
0.245238
0.254721
0.264797
0.275105
0.285165
0.294403
0.302137
0.0200293
0.0395934
0.0513787
0.0607548
0.0691749
0.0771384
0.0848156
0.0922555
0.0994635
0.106431
0.11315
0.11961
0.125807
0.13174
0.13741
0.142824
0.147985
0.152895
0.157553
0.161964
0.166138
0.170077
0.173775
0.177248
0.180562
0.183775
0.18681
0.189547
0.19198
0.194227
0.196466
0.198911
0.201748
0.205153
0.20928
0.214162
0.219854
0.226515
0.234103
0.2425
0.251539
0.260897
0.270307
0.279487
0.288081
0.295544
0.0202917
0.0397588
0.0514797
0.0607953
0.0691444
0.0770121
0.0845661
0.0918613
0.0989102
0.105711
0.11226
0.118553
0.124588
0.130367
0.135897
0.141186
0.146239
0.151053
0.155636
0.160004
0.164166
0.168113
0.171823
0.175314
0.178707
0.182133
0.185403
0.188118
0.190377
0.192448
0.194597
0.197079
0.200112
0.203845
0.208421
0.213567
0.219176
0.225911
0.233974
0.242749
0.251486
0.259957
0.26828
0.276447
0.284173
0.291045
0.019911
0.0383144
0.0506315
0.0602916
0.068803
0.0766998
0.0842055
0.0914102
0.0983454
0.105021
0.111441
0.117609
0.123522
0.129187
0.134619
0.13983
0.144819
0.149579
0.154128
0.158512
0.162753
0.166823
0.170656
0.174274
0.177972
0.181802
0.185441
0.188179
0.190363
0.192371
0.194583
0.1972
0.200342
0.204243
0.209012
0.214109
0.21964
0.226378
0.234393
0.243129
0.252509
0.261218
0.269129
0.276648
0.283552
0.289454
0.0191787
0.0353546
0.0490518
0.0595112
0.0684249
0.0764576
0.0839897
0.091176
0.0980689
0.104689
0.111053
0.117171
0.12304
0.128676
0.134111
0.139365
0.144427
0.149332
0.154105
0.158585
0.162868
0.16699
0.170896
0.174703
0.179723
0.190255
0.195354
0.19675
0.194884
0.197897
0.210877
0.220742
0.229222
0.23692
0.244359
0.251426
0.257806
0.263723
0.269325
0.273407
0.269206
0.264439
0.269857
0.276942
0.284233
0.290189
0.0190104
0.0329209
0.0491984
0.0597822
0.0686896
0.0767148
0.0842452
0.0914349
0.0983365
0.104972
0.111361
0.117515
0.123439
0.129167
0.13477
0.140358
0.146274
0.154319
0.162374
0.169686
0.176106
0.181792
0.186826
0.191426
0.196328
0.202012
0.207063
0.210633
0.213357
0.217768
0.225286
0.234109
0.242755
0.25085
0.25861
0.266109
0.273201
0.279968
0.286502
0.291939
0.294734
0.29624
0.299192
0.302954
0.30287
0.293948
0.0285346
0.0424166
0.059076
0.0705224
0.0780538
0.0854951
0.0928105
0.100001
0.107093
0.11408
0.120953
0.127699
0.134311
0.140788
0.147136
0.153349
0.159445
0.165499
0.171562
0.177582
0.183399
0.188876
0.193878
0.198406
0.202888
0.207894
0.213062
0.217468
0.22098
0.224754
0.230152
0.237153
0.244855
0.25263
0.26032
0.267931
0.275482
0.28321
0.291447
0.299647
0.306354
0.311027
0.315399
0.320787
0.324927
0.324865
0.0375368
0.0608958
0.0743806
0.0804537
0.0859805
0.0924116
0.0991786
0.106029
0.112897
0.119752
0.12657
0.133329
0.140008
0.146585
0.153034
0.159323
0.165416
0.17133
0.177117
0.182802
0.188335
0.193611
0.19852
0.203043
0.207394
0.211916
0.216559
0.220816
0.224437
0.227872
0.231983
0.237207
0.24336
0.250094
0.2572
0.264618
0.272382
0.280673
0.289725
0.299319
0.3084
0.31595
0.3225
0.329495
0.336526
0.341424
0.037628
0.0642103
0.0789269
0.085578
0.0916789
0.0981879
0.104926
0.111731
0.118547
0.125356
0.132141
0.138885
0.145563
0.152147
0.158604
0.164895
0.170972
0.176806
0.182415
0.187833
0.193066
0.19808
0.202822
0.207285
0.211562
0.215797
0.219998
0.223954
0.227508
0.230799
0.234256
0.238289
0.24307
0.248598
0.254838
0.261792
0.269502
0.278066
0.287576
0.297867
0.308263
0.317867
0.32649
0.334805
0.342914
0.349471
0.0333418
0.0593328
0.0763741
0.0864051
0.0944938
0.102005
0.109285
0.116421
0.123456
0.130419
0.13732
0.144153
0.150904
0.157548
0.164056
0.170393
0.176518
0.182395
0.188009
0.19337
0.19849
0.203367
0.207991
0.212368
0.21654
0.220569
0.224469
0.228165
0.231577
0.23474
0.237853
0.241209
0.245083
0.249684
0.255168
0.261661
0.269259
0.278031
0.287982
0.298932
0.310355
0.321467
0.331787
0.341323
0.350061
0.357274
0.0303754
0.0563113
0.0738063
0.0860899
0.0959961
0.104731
0.112827
0.120534
0.127989
0.135272
0.142424
0.149459
0.156375
0.163155
0.169776
0.176209
0.182422
0.188381
0.194064
0.199461
0.204575
0.209407
0.21396
0.218244
0.222286
0.226119
0.229762
0.233197
0.236394
0.239369
0.242232
0.245203
0.24857
0.252636
0.257682
0.26394
0.271574
0.28067
0.291204
0.302976
0.315515
0.328105
0.34001
0.350892
0.360444
0.368101
0.0297149
0.0552244
0.0728297
0.0862972
0.0974241
0.107159
0.116031
0.124344
0.132283
0.139959
0.147434
0.154739
0.161878
0.168843
0.175615
0.182171
0.188482
0.19452
0.200262
0.205692
0.210801
0.215587
0.220054
0.224209
0.228072
0.231669
0.235025
0.238151
0.241053
0.243766
0.246389
0.249121
0.252253
0.256124
0.261078
0.267415
0.275352
0.285003
0.296338
0.309145
0.322968
0.337116
0.35078
0.363182
0.373816
0.382098
0.0304534
0.0556158
0.0733595
0.0874401
0.0992587
0.109645
0.119092
0.127906
0.136281
0.144334
0.152135
0.159717
0.167089
0.174247
0.181172
0.187844
0.194236
0.200323
0.206082
0.211494
0.216545
0.221228
0.225543
0.229496
0.233105
0.236396
0.239401
0.242155
0.244699
0.247103
0.249492
0.252081
0.255169
0.259116
0.264292
0.271031
0.279581
0.290071
0.302471
0.316554
0.331853
0.347661
0.363111
0.377281
0.38925
0.398305
0.0320388
0.0570924
0.0750277
0.0893796
0.101506
0.112229
0.122024
0.131183
0.139887
0.148245
0.156321
0.164142
0.171718
0.179038
0.186085
0.192838
0.19927
0.205356
0.211071
0.216396
0.221313
0.225813
0.229894
0.233561
0.236834
0.239745
0.242339
0.244676
0.246834
0.248925
0.25112
0.253663
0.256873
0.261123
0.266796
0.274237
0.283705
0.295333
0.309084
0.324702
0.341685
0.359282
0.376548
0.392448
0.405943
0.416005
0.0340724
0.0592853
0.0774269
0.091822
0.103998
0.114825
0.124778
0.134128
0.14304
0.151607
0.159878
0.167874
0.175592
0.18302
0.190137
0.196916
0.20333
0.209352
0.214956
0.22012
0.224827
0.229065
0.232833
0.236139
0.239009
0.241486
0.243634
0.245541
0.247326
0.249149
0.251225
0.253836
0.257327
0.26208
0.268483
0.276882
0.287537
0.300572
0.31593
0.333321
0.352187
0.371704
0.390834
0.40844
0.423385
0.434589
0.0362553
0.061869
0.0801936
0.0944867
0.106555
0.117335
0.127304
0.136721
0.145729
0.154406
0.162785
0.170875
0.178664
0.186132
0.193252
0.199993
0.206325
0.212217
0.217643
0.222579
0.227006
0.230915
0.234307
0.237198
0.239624
0.241642
0.243342
0.244842
0.246304
0.247933
0.24999
0.252792
0.256707
0.262128
0.269442
0.27899
0.291024
0.305655
0.3228
0.342123
0.363003
0.38453
0.405569
0.424886
0.441275
0.453617
0.0383914
0.0646028
0.0830571
0.0971671
0.109045
0.119691
0.129585
0.138973
0.147986
0.156683
0.165085
0.173188
0.180972
0.188408
0.195462
0.202099
0.208284
0.213985
0.219171
0.22382
0.227913
0.231445
0.234421
0.236867
0.238833
0.240398
0.241676
0.24282
0.24403
0.245555
0.247695
0.250798
0.25525
0.261449
0.26978
0.280578
0.294081
0.310385
0.329379
0.350681
0.373605
0.397157
0.420113
0.441161
0.459059
0.472694
0.0403675
0.067322
0.0858423
0.0997347
0.111391
0.121859
0.131622
0.140917
0.149861
0.158504
0.166854
0.174896
0.182603
0.189938
0.19686
0.203331
0.209311
0.214765
0.219662
0.223978
0.227698
0.230821
0.233362
0.235358
0.236875
0.238014
0.238917
0.239769
0.240806
0.242312
0.244619
0.2481
0.25315
0.260171
0.269541
0.281587
0.296536
0.314468
0.335248
0.358459
0.383357
0.408877
0.433714
0.4565
0.475997
0.491168
0.0421247
0.0699135
0.0884456
0.10212
0.113555
0.123832
0.133434
0.142592
0.151415
0.159943
0.168178
0.176096
0.183662
0.190834
0.197568
0.203818
0.209542
0.214705
0.219273
0.223226
0.226551
0.229253
0.231358
0.232916
0.234011
0.234767
0.235351
0.235977
0.23691
0.238463
0.24099
0.244878
0.250529
0.258341
0.268687
0.281882
0.298147
0.317555
0.339959
0.364919
0.391651
0.419027
0.445672
0.470169
0.49132
0.508248
0.0436373
0.072297
0.0908096
0.104287
0.115521
0.125611
0.135039
0.144034
0.152698
0.161067
0.169135
0.176877
0.18425
0.19121
0.197705
0.203691
0.209122
0.213959
0.218174
0.221745
0.224667
0.226951
0.228633
0.22978
0.230493
0.230914
0.231234
0.23169
0.23257
0.234206
0.236967
0.241244
0.24744
0.255946
0.267128
0.281295
0.298668
0.319324
0.34312
0.369615
0.398004
0.427104
0.455463
0.481608
0.504387
0.523154
0.0449006
0.0744181
0.0929036
0.10622
0.117282
0.127197
0.13645
0.145266
0.153747
0.161923
0.169789
0.177314
0.184455
0.191161
0.197383
0.203071
0.20818
0.212673
0.21652
0.219704
0.222227
0.224108
0.225394
0.226164
0.226537
0.226671
0.226774
0.227102
0.227957
0.229681
0.232649
0.237252
0.243888
0.252939
0.264764
0.279673
0.297895
0.319526
0.344451
0.372248
0.40211
0.432809
0.4628
0.490516
0.51481
0.535292
0.0459233
0.0762424
0.0947105
0.107906
0.118826
0.128585
0.137667
0.146299
0.154581
0.162544
0.170182
0.177462
0.18434
0.190767
0.196689
0.202059
0.206831
0.210968
0.214445
0.21725
0.219388
0.220889
0.221811
0.222244
0.222318
0.222207
0.222131
0.222355
0.223188
0.224977
0.228095
0.232927
0.239862
0.249276
0.261522
0.276916
0.295706
0.318024
0.343803
0.372671
0.403838
0.436042
0.467629
0.496874
0.522543
0.544434
0.0467236
0.0777496
0.096219
0.109333
0.120141
0.129761
0.138681
0.147129
0.155205
0.162944
0.170337
0.177355
0.183953
0.190083
0.195692
0.200733
0.205162
0.208945
0.21206
0.214499
0.216277
0.217428
0.218021
0.218155
0.21797
0.217649
0.217417
0.217545
0.218341
0.220151
0.223338
0.228282
0.235361
0.244941
0.257376
0.272993
0.292069
0.314789
0.341156
0.370873
0.4032
0.43686
0.47008
0.500915
0.5279
0.55086
0.0473277
0.0789302
0.0974203
0.110485
0.121205
0.130705
0.139474
0.147741
0.155612
0.163121
0.170263
0.177011
0.183321
0.189147
0.194439
0.19915
0.203241
0.206679
0.209448
0.211545
0.21299
0.213825
0.214125
0.213998
0.213589
0.213084
0.212711
0.212738
0.213469
0.21524
0.218407
0.223339
0.230401
0.239954
0.252355
0.267945
0.287041
0.30989
0.336588
0.366941
0.400299
0.435404
0.470376
0.503005
0.53145
0.555331
0.0477369
0.0797645
0.0983064
0.111346
0.121998
0.131393
0.140022
0.148118
0.155786
0.163067
0.169958
0.176434
0.182456
0.18798
0.192958
0.197349
0.201113
0.204226
0.206672
0.208455
0.2096
0.210155
0.2102
0.209846
0.20924
0.20857
0.20806
0.207972
0.208604
0.210279
0.213339
0.218138
0.225031
0.234374
0.246541
0.261881
0.280749
0.303471
0.330251
0.361028
0.395278
0.431821
0.468715
0.503476
0.53377
0.55874
0.0479122
0.0802841
0.0988696
0.111894
0.122492
0.131796
0.140297
0.14823
0.155705
0.162764
0.16941
0.175622
0.181363
0.186595
0.191272
0.195357
0.198816
0.201627
0.203779
0.20528
0.20616
0.206471
0.206294
0.205743
0.204965
0.204141
0.203493
0.203272
0.203765
0.205284
0.208157
0.212724
0.219332
0.228329
0.240077
0.254956
0.273365
0.295728
0.322353
0.353318
0.388281
0.426202
0.465159
0.502432
0.535126
0.561589
0.0478709
0.0804944
0.099103
0.112113
0.122665
0.131888
0.140272
0.148053
0.155346
0.162195
0.168608
0.174567
0.180042
0.184996
0.189391
0.193193
0.196371
0.198907
0.200797
0.20205
0.2027
0.202801
0.202435
0.201715
0.200783
0.199817
0.199027
0.198655
0.198975
0.200283
0.202897
0.207144
0.213361
0.221892
0.2331
0.247382
0.265175
0.286949
0.31314
0.344009
0.379419
0.418534
0.459583
0.49964
0.535259
0.563754
0.0476289
0.0803997
0.0990035
0.111994
0.122503
0.131652
0.139928
0.14757
0.154692
0.161344
0.167537
0.173259
0.178485
0.183182
0.187318
0.19086
0.193786
0.196079
0.197738
0.198778
0.199232
0.199157
0.198633
0.197769
0.196704
0.195606
0.194674
0.194138
0.194256
0.195313
0.19761
0.201464
0.207204
0.215169
0.225724
0.239277
0.256294
0.277305
0.302851
0.333364
0.368932
0.408963
0.451826
0.494625
0.533461
0.564595
0.0472011
0.0800081
0.0985737
0.111533
0.121999
0.131077
0.139254
0.146766
0.153729
0.160198
0.166188
0.171691
0.176687
0.181149
0.185049
0.18836
0.191062
0.193143
0.194606
0.195466
0.195758
0.195539
0.194886
0.193905
0.192726
0.191508
0.190438
0.189732
0.189633
0.190409
0.19235
0.19576
0.200959
0.208281
0.218091
0.230799
0.246894
0.266945
0.291583
0.321391
0.356692
0.397186
0.44152
0.486911
0.529189
0.563684
0.0466027
0.0793321
0.0978218
0.110735
0.121152
0.130162
0.138244
0.145634
0.15245
0.158749
0.164551
0.169854
0.174641
0.178892
0.182582
0.185688
0.188196
0.190097
0.191395
0.192108
0.192271
0.191939
0.191187
0.190114
0.188841
0.187519
0.18632
0.185446
0.185125
0.185609
0.187171
0.190107
0.194724
0.201351
0.210347
0.222121
0.237164
0.256069
0.279523
0.308235
0.342743
0.383071
0.42825
0.475808
0.521566
0.560182
0.0458503
0.0783891
0.0967625
0.109611
0.11997
0.128908
0.136899
0.144173
0.150852
0.156994
0.162624
0.167744
0.172344
0.176405
0.17991
0.18284
0.185183
0.186933
0.188098
0.188696
0.188761
0.188346
0.187522
0.186382
0.185038
0.18363
0.182317
0.181287
0.180749
0.180941
0.182121
0.18457
0.188586
0.194489
0.202627
0.213401
0.227291
0.244887
0.266899
0.294114
0.327247
0.366641
0.411793
0.460766
0.509746
0.553133
0.044962
0.0772003
0.0954157
0.108178
0.118467
0.127329
0.135227
0.142391
0.14894
0.154937
0.160409
0.165364
0.169794
0.173689
0.177032
0.179811
0.182016
0.183645
0.184705
0.185217
0.185213
0.184743
0.183875
0.182693
0.181302
0.17983
0.178423
0.177253
0.176515
0.176427
0.177235
0.179203