/*--------------------------------*- C++ -*----------------------------------*\
  =========                 |
  \\      /  F ield         | OpenFOAM: The Open Source CFD Toolbox
   \\    /   O peration     | Website:  https://openfoam.org
    \\  /    A nd           | Version:  7
     \\/     M anipulation  |
\*---------------------------------------------------------------------------*/
FoamFile
{
    version     2.0;
    format      ascii;
    class       volScalarField;
    location    "0.3";
    object      nut;
}
// * * * * * * * * * * * * * * * * * * * * * * * * * * * * * * * * * * * * * //

dimensions      [0 2 -1 0 0 0 0];

internalField   nonuniform List<scalar> 
9072
(
2.49842e-05
2.54778e-05
3.18749e-05
3.61497e-05
3.9401e-05
4.19023e-05
4.39857e-05
4.58105e-05
4.74767e-05
4.90494e-05
5.05704e-05
5.20659e-05
5.35511e-05
5.50334e-05
5.65148e-05
5.79926e-05
5.94612e-05
6.0912e-05
6.23348e-05
6.37174e-05
6.50463e-05
6.63072e-05
6.7485e-05
6.85639e-05
6.95284e-05
7.03627e-05
7.10517e-05
7.15812e-05
7.19376e-05
7.21082e-05
7.20795e-05
7.1827e-05
7.13961e-05
7.08057e-05
7.00071e-05
6.89722e-05
6.76768e-05
6.60974e-05
6.42234e-05
6.2089e-05
5.97815e-05
5.75415e-05
5.59038e-05
5.28889e-05
5.04506e-05
4.77683e-05
4.89124e-05
0.00017963
0.000258666
0.000314102
0.000354682
0.000386518
0.000412561
0.000434927
0.00045504
0.000473828
0.000491861
0.000509466
0.000526796
0.000543887
0.000560694
0.000577114
0.000593006
0.000608209
0.000622547
0.000635838
0.000647901
0.000658557
0.000667636
0.000674977
0.000680438
0.000683899
0.000685273
0.000684511
0.000681621
0.000676667
0.000669774
0.000660963
0.000646726
0.000627311
0.00060405
0.000577751
0.000548912
0.000518211
0.000487028
0.000457738
0.000432987
0.000410642
0.000387906
0.000364609
0.000287199
0.000132499
5.33537e-05
0.000287609
0.000443671
0.000562565
0.000658318
0.000738039
0.000806582
0.000867574
0.000923634
0.000976568
0.00102755
0.00107726
0.00112604
0.00117392
0.00122078
0.00126633
0.0013102
0.00135198
0.0013912
0.00142739
0.00146011
0.00148891
0.00151337
0.00153311
0.00154779
0.00155715
0.001561
0.00155927
0.001552
0.00153939
0.00152176
0.00149916
0.0014684
0.00142829
0.00137937
0.00132143
0.00125309
0.00117221
0.00107777
0.00097304
0.000868082
0.000773405
0.000699418
0.00065601
0.000509833
0.000150679
5.77083e-05
0.000348989
0.000564102
0.000737697
0.000884325
0.00101154
0.00112478
0.00122827
0.00132517
0.00141773
0.00150744
0.00159517
0.00168131
0.00176586
0.00184853
0.00192885
0.00200618
0.00207982
0.00214902
0.00221301
0.00227106
0.00232244
0.00236649
0.00240261
0.00243026
0.00244905
0.00245869
0.00245911
0.00245042
0.00243297
0.00240726
0.0023735
0.00232949
0.0022738
0.00220588
0.00212392
0.00202399
0.00190013
0.00174685
0.00156449
0.00136649
0.00117856
0.0010283
0.000933276
0.000747163
0.000168255
6.19932e-05
0.000385575
0.0006441
0.000861226
0.00105126
0.00122138
0.00137682
0.00152179
0.00165953
0.00179237
0.0019219
0.00204897
0.0021739
0.00229659
0.00241656
0.0025331
0.00264535
0.00275233
0.00285303
0.0029464
0.00303145
0.00310722
0.00317282
0.00322746
0.00327046
0.00330129
0.00331963
0.00332539
0.00331877
0.00330028
0.00327059
0.00323012
0.00317736
0.00311096
0.00302946
0.00292948
0.00280466
0.00264601
0.00244453
0.00219745
0.00191765
0.00163888
0.00140483
0.00123157
0.000945588
0.000185313
6.56537e-05
0.000411496
0.000700526
0.000951343
0.00117745
0.00138514
0.00157899
0.00176278
0.00193949
0.00211132
0.00227969
0.00244534
0.00260843
0.00276866
0.00292534
0.00307756
0.0032242
0.00336407
0.00349589
0.00361843
0.00373047
0.00383085
0.00391852
0.00399254
0.0040521
0.0040966
0.00412569
0.00413932
0.00413776
0.00412167
0.00409189
0.004049
0.00399191
0.00391922
0.00382869
0.00371542
0.00357107
0.00338448
0.00314463
0.00284682
0.00250201
0.00214478
0.00182487
0.00155196
0.00113142
0.000200065
6.87173e-05
0.00043215
0.00074339
0.00102044
0.00127641
0.0015167
0.00174502
0.00196449
0.00217764
0.00238631
0.00259164
0.00279413
0.0029937
0.00318981
0.00338157
0.00356783
0.00374727
0.0039185
0.00408006
0.00423053
0.00436855
0.0044928
0.00460212
0.00469544
0.00477191
0.00483087
0.00487197
0.0048952
0.00490096
0.00489001
0.00486334
0.00482165
0.00476404
0.00468881
0.00459299
0.00447033
0.00431085
0.00410199
0.00383181
0.00349473
0.00309949
0.0026768
0.00227178
0.00188262
0.00130646
0.000213257
7.12916e-05
0.000449366
0.000778079
0.00107639
0.00135755
0.00162628
0.0018855
0.00213758
0.00238448
0.00262755
0.00286756
0.00310467
0.00333853
0.00356833
0.00379296
0.00401107
0.00422115
0.00442165
0.00461097
0.00478757
0.00494995
0.00509674
0.00522667
0.00533863
0.00543171
0.00550527
0.00555898
0.00559289
0.00560751
0.00560372
0.00558261
0.00554493
0.00548993
0.0054151
0.00531705
0.00518817
0.00501717
0.00479061
0.0044963
0.00412831
0.00369309
0.00321471
0.00272656
0.00221195
0.0014691
0.000226582
7.33666e-05
0.000463788
0.000807373
0.00112403
0.00142721
0.00172125
0.00200839
0.00229033
0.00256838
0.00284339
0.00311566
0.003385
0.00365071
0.00391175
0.00416678
0.00441425
0.00465252
0.0048799
0.00509471
0.0052953
0.00548014
0.00564778
0.00579691
0.00592643
0.00603541
0.00612325
0.00618966
0.00623479
0.00625922
0.00626396
0.00625017
0.0062186
0.0061685
0.0060964
0.0059985
0.00586595
0.00568634
0.00544565
0.00513174
0.00473851
0.00426993
0.00374216
0.00317357
0.00253176
0.00162174
0.000237929
7.50346e-05
0.000475685
0.000832764
0.0011663
0.00148964
0.00180683
0.0021196
0.00242906
0.00273592
0.0030405
0.00334264
0.00364174
0.0039368
0.00422651
0.00450934
0.00478357
0.00504746
0.00529921
0.00553709
0.00575942
0.00596462
0.00615124
0.00631798
0.00646374
0.00658765
0.00668913
0.00676798
0.00682442
0.00685917
0.00687329
0.006868
0.00684397
0.00680025
0.00673274
0.00663685
0.00650261
0.00631666
0.00606453
0.00573418
0.00531926
0.00482111
0.00424772
0.00360217
0.0028371
0.00176537
0.00024848
7.63886e-05
0.000485319
0.000855191
0.0012051
0.00154773
0.00188674
0.00222348
0.00255856
0.00289217
0.00322412
0.0035538
0.00388023
0.00420213
0.00451793
0.00482593
0.00512431
0.00541121
0.00568481
0.00594333
0.00618509
0.00640852
0.0066122
0.00679485
0.00695542
0.0070931
0.00720738
0.00729815
0.00736574
0.00741093
0.00743488
0.0074388
0.00742324
0.00738695
0.00732527
0.00723273
0.00709832
0.00690776
0.00664618
0.0063015
0.00586694
0.00534118
0.00472453
0.00400618
0.00312537
0.00190139
0.00025892
7.74899e-05
0.000492999
0.000875391
0.00124178
0.0016035
0.00196366
0.00232324
0.00268243
0.00304099
0.00339827
0.00375327
0.00410468
0.00445094
0.00479029
0.00512089
0.00544082
0.00574819
0.00604115
0.00631792
0.00657686
0.00681642
0.00703523
0.00723208
0.00740599
0.00755621
0.00768234
0.00778436
0.00786268
0.0079182
0.00795211
0.00796558
0.00795901
0.0079308
0.00787576
0.00778751
0.00765404
0.0074602
0.00719062
0.006833
0.00637994
0.0058275
0.00516927
0.00438273
0.00339545
0.00203164
0.000269645
7.83974e-05
0.000499079
0.000894044
0.00127741
0.00165846
0.00203954
0.00242121
0.00280332
0.00318526
0.003566
0.00394422
0.00431833
0.00468655
0.00504698
0.00539767
0.00573665
0.00606203
0.00637195
0.00666468
0.00693861
0.00719227
0.00742435
0.00763373
0.0078195
0.00798103
0.00811801
0.0082305
0.00831903
0.00838456
0.00842833
0.00845142
0.00845405
0.00843423
0.00838628
0.00830296
0.00817126
0.00797515
0.00769868
0.00732913
0.00685824
0.00627967
0.00558137
0.00473141
0.00364731
0.00215847
0.000281055
7.91665e-05
0.00050396
0.000911828
0.00131292
0.00171381
0.00211583
0.0025191
0.00292315
0.00332706
0.00372953
0.00412897
0.0045236
0.00491147
0.00529059
0.00565896
0.00601462
0.00635565
0.00668026
0.00698676
0.00727363
0.00753947
0.00778305
0.00800335
0.00819958
0.00837119
0.00851799
0.00864015
0.00873829
0.0088134
0.00886674
0.00889932
0.0089111
0.00889973
0.00885902
0.00878103
0.00865174
0.00845421
0.00817179
0.00779116
0.00730309
0.00669904
0.0059624
0.0050539
0.0038826
0.00228533
0.000293582
7.98485e-05
0.000508084
0.000929432
0.00134914
0.00177052
0.00219366
0.00261817
0.00304329
0.00346787
0.00389042
0.00430917
0.00472221
0.00512753
0.00552308
0.00590685
0.00627691
0.00663139
0.00696856
0.00728681
0.00758468
0.00786089
0.00811431
0.00834404
0.00854937
0.0087299
0.00888554
0.00901655
0.00912362
0.00920781
0.00927034
0.00931211
0.00933281
0.0093297
0.00929619
0.0092238
0.00909743
0.00889923
0.00861178
0.00822103
0.0077167
0.00708834
0.00631587
0.00535448
0.00410713
0.00241896
0.000307651
8.04916e-05
0.000511929
0.000947532
0.00138685
0.00182939
0.00227384
0.00271925
0.00316462
0.00360862
0.00404966
0.00448589
0.00491535
0.00533601
0.00574584
0.00614288
0.00652522
0.00689109
0.00723884
0.00756695
0.00787405
0.00815898
0.00842071
0.00865845
0.00887165
0.00905999
0.00922351
0.00936257
0.00947792
0.00957063
0.00964188
0.00969243
0.00972168
0.00972647
0.00969988
0.00963331
0.00951032
0.00931218
0.00902071
0.00862108
0.00810199
0.00745143
0.00664703
0.0056409
0.00433545
0.00258136
0.000324495
3.34896e-05
8.49904e-05
0.000120307
0.000144985
0.000162908
0.000176304
0.000186436
0.000193998
0.000198869
0.000201446
0.000202112
0.000201212
0.000199077
0.000196022
0.000192343
0.000188293
0.000184055
0.000179955
0.000176139
0.000172587
0.000169304
0.000166262
0.000163411
0.000160677
0.000157982
0.000155309
0.000152441
0.000149169
0.000145293
0.000140577
0.000134739
0.000127431
0.000118224
0.00010657
9.17444e-05
7.27486e-05
4.86508e-05
6.45614e-05
7.06107e-05
0.000237594
0.000325814
0.000390916
0.000442402
0.000484118
0.000517938
0.000544054
0.000563732
0.000577543
0.000585896
0.000589218
0.000588056
0.000583065
0.000574994
0.000564639
0.000552758
0.00054013
0.000527707
0.000515716
0.000504344
0.000493657
0.0004836
0.000474015
0.000464638
0.00045509
0.000445285
0.00043478
0.000423125
0.000409809
0.000394229
0.000375657
0.000353174
0.000325489
0.00029057
0.000244811
0.000184045
0.000268792
8.06484e-05
0.000379128
0.000536835
0.000650174
0.000740658
0.000815456
0.00087768
0.000928061
0.000968477
0.000999314
0.00102068
0.0010328
0.00103619
0.00103172
0.00102057
0.00100414
0.000983902
0.000961293
0.000938247
0.000915496
0.000893567
0.000872719
0.000852951
0.000834038
0.000815538
0.000796801
0.00077761
0.000757267
0.000735017
0.000710003
0.00068123
0.000647486
0.000607197
0.000558042
0.000496108
0.000413882
0.000298497
0.000294125
8.87501e-05
0.000497961
0.000727359
0.000886098
0.00101186
0.00111703
0.00120675
0.00128245
0.00134597
0.00139714
0.0014354
0.00146042
0.00147238
0.00147209
0.00146097
0.00144093
0.00141415
0.00138276
0.00134965
0.00131622
0.00128347
0.00125196
0.0012218
0.00119276
0.00116429
0.00113553
0.00110601
0.00107475
0.00104067
0.00100252
0.000958896
0.000908036
0.000847624
0.000774179
0.000681715
0.000558366
0.00037579
6.95199e-05
9.57907e-05
0.000597415
0.000893066
0.00109108
0.00124618
0.00137716
0.00149165
0.00159186
0.00167925
0.00175287
0.00181114
0.0018528
0.00187736
0.00188527
0.00187796
0.00185766
0.00182711
0.00178918
0.00174759
0.00170454
0.00166158
0.00161967
0.00157915
0.00153984
0.00150112
0.00146202
0.00142175
0.00137906
0.00133253
0.00128053
0.00122121
0.00115226
0.00107058
0.000971546
0.00084719
0.000681893
0.000439537
7.12282e-05
0.000102353
0.000682141
0.0010353
0.00126559
0.00144385
0.00159575
0.0017316
0.00185452
0.00196561
0.00206289
0.00214355
0.00220508
0.00224599
0.00226606
0.00226645
0.00224948
0.00221831
0.00217647
0.00212842
0.00207719
0.00202503
0.00197334
0.00192278
0.00187331
0.00182432
0.00177474
0.00172352
0.00166912
0.00160979
0.00154355
0.00146807
0.00138052
0.00127705
0.00115192
0.000995446
0.00078915
0.00049308
7.47209e-05
0.00010886
0.000756453
0.00115749
0.0014131
0.00160871
0.0017767
0.00193019
0.00207344
0.00220723
0.00232857
0.00243321
0.0025172
0.00257772
0.00261361
0.00262543
0.00261537
0.0025868
0.0025438
0.00249149
0.00243376
0.00237356
0.00231288
0.00225276
0.00219338
0.00213421
0.00207412
0.00201183
0.00194555
0.00187322
0.0017925
0.00170063
0.00159423
0.00146877
0.0013175
0.00112931
0.000883651
0.000538845
7.78439e-05
0.000115669
0.000824126
0.00126382
0.00153835
0.00174599
0.00192549
0.00209276
0.00225347
0.00240827
0.00255321
0.00268261
0.0027909
0.00287373
0.00292864
0.00295535
0.00295561
0.0029328
0.00289141
0.0028371
0.00277464
0.00270771
0.00263893
0.00256982
0.00250085
0.00243164
0.00236107
0.00228765
0.0022094
0.00212395
0.00202861
0.00192022
0.0017949
0.00164745
0.00147029
0.0012511
0.000967941
0.000578571
8.05468e-05
0.000123131
0.000888431
0.00135861
0.00164636
0.00186126
0.00204796
0.00222512
0.0024001
0.00257359
0.00274089
0.002895
0.00302867
0.00313582
0.00321246
0.00325714
0.00327091
0.00325691
0.00321981
0.00316582
0.00310045
0.00302816
0.00295225
0.00287477
0.00279659
0.00271753
0.00263654
0.00255199
0.0024617
0.00236305
0.00225303
0.00212809
0.00198388
0.00181461
0.00161195
0.00136268
0.0010439
0.000613548
8.29131e-05
0.000131623
0.000952162
0.00144574
0.00174182
0.00195974
0.00214965
0.00233294
0.00251879
0.00270817
0.00289591
0.00307389
0.00323325
0.00336606
0.00346659
0.00353191
0.00356208
0.00355977
0.00352957
0.00347818
0.00341178
0.00333556
0.00325354
0.00316837
0.0030814
0.00299272
0.00290141
0.00280576
0.00270341
0.00259153
0.00246681
0.00232535
0.00216234
0.00197151
0.00174387
0.00146553
0.00111295
0.000644722
8.5011e-05
0.000141557
0.00101759
0.00152827
0.00182847
0.00204572
0.00223526
0.00242117
0.00261451
0.00281668
0.00302241
0.00322275
0.00340739
0.00356654
0.00369253
0.00378073
0.00382992
0.00384196
0.00382118
0.00377465
0.00370912
0.00363046
0.00354341
0.0034513
0.00335599
0.00325795
0.00315646
0.00304974
0.00293535
0.00281025
0.00267086
0.00251294
0.00233132
0.00211924
0.00186722
0.00156082
0.00117618
0.000672791
8.68917e-05
0.000153367
0.00108634
0.00160799
0.00190861
0.00212207
0.00230823
0.00249376
0.00269143
0.00290326
0.00312421
0.00334488
0.00355374
0.00373927
0.00389175
0.00400464
0.00407514
0.00410394
0.004095
0.00405562
0.00399289
0.00391331
0.00382236
0.00372408
0.00362093
0.00351384
0.00340232
0.00328463
0.00315824
0.00301996
0.00286595
0.0026917
0.00249168
0.00225874
0.00198297
0.00164954
0.00123445
0.00069828
8.85939e-05
0.00016745
0.00115929
0.00168512
0.00198267
0.00218996
0.00237044
0.00255333
0.00275269
0.00297127
0.00320458
0.00344321
0.00367478
0.00388617
0.00406565
0.00420458
0.00429838
0.00434604
0.00435132
0.00432133
0.00426335
0.00418444
0.00409078
0.00398717
0.00387673
0.0037609
0.00363955
0.003511
0.00337269
0.00322129
0.00305277
0.00286234
0.00264418
0.00239079
0.00209194
0.0017325
0.00128845
0.000721595
9.01475e-05
0.000184071
0.00123627
0.0017581
0.00204902
0.00224866
0.00242213
0.00260104
0.00280021
0.00302313
0.00326617
0.00352027
0.00377267
0.00400896
0.00421547
0.00438139
0.00450008
0.00456853
0.00459031
0.00457195
0.00452072
0.00444411
0.00434898
0.00424092
0.00412377
0.00399956
0.00386861
0.00372936
0.00357924
0.00341482
0.0032319
0.00302549
0.00278948
0.0025161
0.00219482
0.00181035
0.00133875
0.00074306
9.15768e-05
0.000203633
0.00131562
0.00182336
0.0021038
0.00229554
0.00246199
0.00263668
0.00283473
0.00306033
0.00331086
0.00357809
0.00384929
0.00410917
0.00434234
0.00453581
0.00468054
0.00477159
0.00481206
0.00480755
0.0047651
0.00469247
0.00459719
0.00448562
0.00436238
0.00423018
0.00408988
0.00394013
0.00377833
0.00360102
0.00340387
0.00318169
0.00292815
0.00263525
0.00229223
0.00188369
0.00138582
0.000762935
9.29028e-05
0.000231182
0.0013983
0.00187446
0.00214097
0.00232641
0.00248738
0.00265887
0.00285592
0.00308337
0.00333981
0.00361812
0.00390613
0.0041881
0.00444723
0.00466848
0.00483991
0.00495529
0.00501658
0.00502814
0.00499652
0.00492964
0.00483558
0.00472149
0.00459283
0.00445305
0.00430371
0.00414368
0.00397038
0.00378034
0.00356914
0.00333144
0.00306071
0.00274877
0.0023847
0.001953
0.00143005
0.000781432
9.41467e-05
8.11993e-05
0.000516803
0.000971662
0.00143899
0.00191272
0.00238901
0.00286564
0.00334096
0.00381332
0.00428094
0.00474189
0.00519423
0.00563597
0.00606518
0.00647999
0.00687866
0.00725953
0.00762112
0.00796209
0.00828125
0.00857761
0.00885036
0.00909891
0.00932292
0.00952232
0.00969733
0.0098485
0.0099767
0.0100831
0.0101687
0.0102343
0.0102787
0.0102982
0.0102847
0.0102277
0.0101108
0.00991395
0.00961803
0.00920699
0.00866814
0.0079878
0.0071423
0.00608574
0.00474395
0.00304334
0.000833858
8.23824e-05
0.00052556
0.0010143
0.001526
0.00204537
0.00256511
0.0030818
0.00359345
0.00409844
0.00459521
0.00508213
0.00555754
0.00601975
0.00646714
0.00689811
0.00731118
0.00770498
0.00807828
0.00842997
0.00875915
0.00906508
0.00934724
0.00960533
0.00983932
0.0100494
0.0102361
0.0104001
0.0105424
0.0106641
0.0107661
0.0108486
0.0109102
0.0109461
0.0109471
0.0108985
0.0107851
0.0105863
0.0102818
0.00985497
0.00929249
0.00858129
0.00770111
0.00661634
0.00527738
0.00364402
0.0016912
8.37697e-05
0.000538518
0.00106865
0.00163015
0.00219728
0.0027596
0.00331314
0.00385626
0.00438798
0.00490736
0.00541339
0.00590494
0.00638077
0.00683965
0.00728035
0.00770169
0.00810259
0.00848208
0.00883932
0.00917365
0.00948459
0.00977189
0.0100355
0.0102758
0.0104932
0.0106884
0.0108623
0.0110158
0.0111498
0.0112651
0.0113614
0.0114367
0.0114856
0.0114981
0.0114581
0.0113498
0.0111521
0.0108448
0.0104107
0.00983748
0.00911424
0.00822658
0.00715106
0.00585841
0.00434001
0.00266738
8.54772e-05
0.000557375
0.00113672
0.00175165
0.00236619
0.00296797
0.00355359
0.00412253
0.00467494
0.00521086
0.00573004
0.00623197
0.00671595
0.00718114
0.00762668
0.0080517
0.0084554
0.00883705
0.00919606
0.009532
0.00984463
0.0101339
0.0104002
0.0106439
0.0108659
0.0110671
0.0112484
0.0114106
0.0115545
0.0116802
0.0117872
0.0118732
0.0119323
0.0119541
0.0119223
0.0118197
0.0116259
0.0113206
0.0108876
0.0103154
0.00959684
0.00872407
0.00768577
0.00647062
0.00509242
0.00365816
8.75957e-05
0.000583218
0.00121876
0.00188795
0.00254662
0.00318264
0.00379445
0.00438331
0.00495079
0.005498
0.0060255
0.00653339
0.00702144
0.00748922
0.00793617
0.00836172
0.0087653
0.00914642
0.0095047
0.0098399
0.010152
0.0104412
0.0107079
0.010953
0.0111776
0.0113827
0.0115695
0.0117385
0.01189
0.0120237
0.0121389
0.0122329
0.0122999
0.0123295
0.012306
0.0122096
0.0120221
0.0117236
0.0112986
0.0107376
0.0100364
0.00919377
0.00820873
0.00708421
0.0058475
0.00460591
9.01609e-05
0.000616653
0.00131234
0.00203256
0.00272934
0.00339321
0.00402525
0.00462875
0.00520667
0.00576113
0.00629343
0.00680418
0.00729358
0.00776152
0.00820773
0.00863188
0.00903362
0.00941265
0.00976876
0.0101019
0.0104121
0.0106999
0.0109658
0.0112109
0.0114366
0.0116443
0.0118351
0.0120092
0.0121664
0.0123061
0.0124271
0.012527
0.0125999
0.0126361
0.0126201
0.0125321
0.0123539
0.0120667
0.011656
0.0111139
0.0104394
0.00963621
0.00871121
0.00767721
0.00656809
0.00547648
9.30909e-05
0.000657453
0.00141115
0.00217464
0.00290201
0.00358762
0.00423507
0.0048493
0.00543447
0.00599354
0.00652841
0.00704015
0.00752932
0.00799607
0.0084404
0.00886218
0.00926125
0.00963746
0.00999074
0.0103212
0.010629
0.0109147
0.0111792
0.0114235
0.0116493
0.0118586
0.0120522
0.0122301
0.0123914
0.0125349
0.0126597
0.0127634
0.012841
0.012883
0.0128749
0.0127973
0.0126309
0.0123586
0.011967
0.01145
0.0108089
0.0100509
0.00918773
0.00823817
0.00723784
0.00626244
9.61238e-05
0.000702876
0.0015037
0.00229953
0.00305069
0.00375395
0.00441407
0.00503699
0.00562776
0.00619007
0.00672636
0.00723817
0.00772633
0.0081913
0.00863326
0.0090523
0.00944842
0.00982158
0.0101718
0.0104993
0.0108045
0.0110879
0.0113504
0.0115934
0.0118187
0.0120289
0.0122249
0.0124055
0.0125692
0.0127145
0.0128409
0.0129465
0.0130273
0.0130743
0.0130739
0.0130076
0.0128542
0.0125985
0.0122287
0.0117405
0.0111371
0.0104276
0.00962636
0.00875444
0.0078464
0.00696346
9.88115e-05
0.00074439
0.00157254
0.0023904
0.00316216
0.00388237
0.00455493
0.00518625
0.00578221
0.00634729
0.00688458
0.00739604
0.00788287
0.00834577
0.00878516
0.00920132
0.00959437
0.00996434
0.0103113
0.0106357
0.0109379
0.0112186
0.0114786
0.0117193
0.0119434
0.0121543
0.0123528
0.0125358
0.0127003
0.0128451
0.0129704
0.0130756
0.0131575
0.013208
0.0132136
0.0131563
0.0130148
0.0127734
0.0124232
0.0119627
0.0113972
0.0107372
0.0099972
0.00919808
0.00837155
0.00756704
0.0001006
0.000764805
0.00159634
0.00243199
0.00322711
0.00396724
0.00465397
0.00529438
0.00589563
0.00646329
0.00700126
0.00751206
0.00799721
0.00845771
0.00889422
0.0093072
0.00969683
0.0100632
0.0104064
0.0107269
0.0110256
0.0113029
0.0115592
0.0117958
0.0120171
0.0122291
0.0124325
0.012619
0.0127834
0.0129251
0.013046
0.0131477
0.0132284
0.0132804
0.0132898
0.0132374
0.013102
0.0128651
0.0125231
0.0120805
0.0115443
0.0109293
0.0102484
0.00951966
0.00877029
0.0080392
0.000100971
0.000739074
0.00155728
0.00241729
0.00324457
0.00400942
0.004712
0.00536165
0.00596775
0.00653737
0.0070754
0.00758493
0.00806781
0.00852526
0.00895826
0.00936748
0.0097531
0.010115
0.0104536
0.0107697
0.0110644
0.0113379
0.011589
0.0118178
0.0120315
0.0122474
0.0124676
0.0126628
0.0128255
0.0129591
0.0130715
0.0131672
0.0132456
0.013298
0.0133078
0.0132558
0.0131235
0.012884
0.0125181
0.0120482
0.0115171
0.0109426
0.0103203
0.00965839
0.00898666
0.00832772
9.97379e-05
0.000649046
0.0014557
0.00235594
0.00322586
0.00401806
0.0047358
0.00539327
0.00600278
0.00657308
0.0071101
0.0076175
0.00809712
0.00855035
0.00897866
0.00938315
0.00976379
0.0101202
0.0104533
0.0107656
0.0110587
0.011332
0.0115805
0.0118012
0.0120062
0.0122277
0.0124646
0.0126644
0.0128295
0.0129564
0.0130648
0.0131593
0.0132313
0.0132747
0.0132758
0.0132291
0.0131036
0.012868
0.0125091
0.0120396
0.0114701
0.0108651
0.0102439
0.00960519
0.00897351
0.00837748
9.79025e-05
0.000518637
0.00131504
0.00226829
0.00319038
0.00400947
0.00473964
0.00540278
0.00601429
0.00658427
0.0071197
0.00762486
0.00810121
0.00855015
0.00897402
0.00937466
0.0097515
0.0101101
0.0104494
0.0107643
0.0110561
0.0113267
0.0115709
0.011782
0.0119337
0.0119459
0.0120981
0.0123051
0.0125789
0.0126603
0.0123775
0.012193
0.0120798
0.0120229
0.0119982
0.0119777
0.0119339
0.0118497
0.0117208
0.0115362
0.0112889
0.0108545
0.010258
0.00961869
0.00894123
0.00831898
9.88297e-05
0.00040269
0.00130018
0.00225984
0.00317895
0.00399968
0.00473337
0.00540013
0.00601465
0.00658688
0.00712388
0.00762998
0.00810678
0.00855583
0.00897943
0.00937919
0.00975757
0.010143
0.0104618
0.0107047
0.0108932
0.011041
0.0111551
0.0112448
0.0113246
0.0114001
0.0114771
0.011535
0.0115686
0.0115806
0.0115532
0.0114958
0.0114424
0.0114089
0.0113939
0.0113846
0.0113639
0.011319
0.0112419
0.0111161
0.0109159
0.0106238
0.0102487
0.00979249
0.0091934
0.00839897
0.000126123
0.000504395
0.00129884
0.00217022
0.00302409
0.00386902
0.00467374
0.00542476
0.00611816
0.00675444
0.00733618
0.00786629
0.00834721
0.00878127
0.00917086
0.00951824
0.00982666
0.0101025
0.0103424
0.0105392
0.0106901
0.0107975
0.0108656
0.0109038
0.0109293
0.0109566
0.0109822
0.0109888
0.0109733
0.0109525
0.0109373
0.0109223
0.0109078
0.010898
0.0108936
0.0108897
0.010878
0.0108509
0.0108025
0.0107211
0.0105814
0.0103705
0.0100962
0.00976294
0.00934663
0.00883866
0.000139603
0.000745759
0.00148088
0.00220951
0.00300158
0.00384274
0.0046784
0.00547374
0.00621116
0.00688353
0.00748977
0.00803171
0.00851229
0.00893466
0.00930184
0.00961658
0.00988203
0.0101032
0.0102849
0.0104292
0.0105362
0.0106066
0.0106427
0.0106508
0.0106427
0.010631
0.0106174
0.0105933
0.010556
0.0105157
0.0104861
0.0104698
0.0104629
0.0104613
0.0104612
0.0104578
0.0104457
0.0104202
0.0103777
0.0103115
0.0102046
0.0100434
0.00983226
0.00958142
0.00928534
0.00893872
0.000137133
0.000806147
0.00155034
0.00226702
0.00305877
0.00390809
0.00476465
0.00558735
0.0063512
0.00704404
0.00766214
0.00820658
0.0086808
0.00908901
0.0094354
0.00972387
0.00995823
0.0101431
0.0102844
0.0103874
0.0104562
0.0104937
0.0105031
0.0104895
0.0104605
0.0104247
0.0103857
0.010342
0.0102926
0.0102431
0.0102022
0.0101751
0.0101603
0.0101527
0.010146
0.0101337
0.0101099
0.0100703
0.0100122
0.00993254
0.00982616
0.00968132
0.00950008
0.00929195
0.00906013
0.00880231
0.000128767
0.000800491
0.00157186
0.00234146
0.00317391
0.00405072
0.00492901
0.00576996
0.00654775
0.00724888
0.00786879
0.0084085
0.00887196
0.00926434
0.00959104
0.00985718
0.0100676
0.0102274
0.010342
0.0104175
0.0104594
0.0104727
0.0104619
0.0104321
0.0103893
0.0103394
0.0102866
0.0102323
0.0101775
0.0101249
0.0100793
0.0100442
0.0100192
0.01
0.00997974
0.00995059
0.0099056
0.00983988
0.00975119
0.00963898
0.00950312
0.00934482
0.00916159
0.00896153
0.00875143
0.0085343
0.000123679
0.000790984
0.00159595
0.00244527
0.0033424
0.00426108
0.00516384
0.00601768
0.00680038
0.00750037
0.00811417
0.00864354
0.00909316
0.00946899
0.00977733
0.0100242
0.0102155
0.0103565
0.0104531
0.010511
0.0105362
0.0105341
0.0105104
0.0104702
0.0104189
0.0103616
0.0103025
0.0102441
0.010188
0.0101362
0.0100907
0.0100527
0.0100211
0.0099913
0.00995612
0.009907
0.00983612
0.00973821
0.00961153
0.00945754
0.00927952
0.00908224
0.00887326
0.00865551
0.00843663
0.00822371
0.000123003
0.000773506
0.00163977
0.00258244
0.00355553
0.00452247
0.00545017
0.00631292
0.00709437
0.00778685
0.00838922
0.00890466
0.00933878
0.00969822
0.00998986
0.0102204
0.010396
0.0105227
0.0106063
0.0106526
0.0106674
0.0106565
0.0106253
0.0105795
0.0105241
0.0104639
0.0104031
0.0103446
0.0102905
0.010242
0.0101997
0.010163
0.0101291
0.0100924
0.0100447
0.00997645
0.00987948
0.0097487
0.00958343
0.00938695
0.00916499
0.00892436
0.00867308
0.00842147
0.00817518
0.00794245
0.000124916
0.000769076
0.00170781
0.00274814
0.00379879
0.00481368
0.00576428
0.00663257
0.00740886
0.00809011
0.00867818
0.009178
0.0095962
0.00994002
0.0102167
0.0104333
0.0105963
0.0107119
0.0107859
0.0108241
0.0108324
0.0108163
0.0107814
0.0107331
0.0106766
0.0106165
0.010557
0.0105013
0.0104514
0.0104084
0.0103719
0.0103398
0.0103075
0.0102676
0.0102106
0.0101259
0.0100053
0.00984456
0.00964461
0.00941072
0.00915041
0.00887144
0.00858135
0.00828844
0.00800344
0.00773737
0.000128321
0.000783193
0.00180061
0.00293453
0.0040569
0.00511492
0.00608481
0.00695581
0.00772464
0.00839297
0.00896569
0.00944959
0.00985232
0.0101817
0.0104452
0.01065
0.0108027
0.0109095
0.0109763
0.0110089
0.0110129
0.010994
0.0109575
0.0109089
0.0108533
0.0107955
0.0107395
0.0106888
0.0106454
0.0106101
0.0105818
0.010557
0.0105292
0.0104893
0.0104259
0.0103279
0.0101872
0.0100011
0.00977275
0.0095093
0.00921952
0.00891118
0.0085905
0.00826336
0.00793806
0.00762943
0.000132384
0.000814107
0.00191402
0.00313272
0.004317
0.0054111
0.006396
0.00726736
0.00802759
0.0086826
0.00924013
0.00970873
0.010097
0.0104132
0.0106652
0.01086
0.0110043
0.0111042
0.0111656
0.0111943
0.0111957
0.0111755
0.0111391
0.0110917
0.0110388
0.0109849
0.0109345
0.0108908
0.0108561
0.0108308
0.010813
0.0107978
0.010777
0.0107393
0.0106719
0.0105631
0.010406
0.0101996
0.00994943
0.00966444
0.00935391
0.00902483
0.00868142
0.00832697
0.0079674
0.00761648
0.000136527
0.000857702
0.00204108
0.00333398
0.00456933
0.00569207
0.00668785
0.00755775
0.00830898
0.00895109
0.00949433
0.00994878
0.0103239
0.0106285
0.0108704
0.0110568
0.0111942
0.0112888
0.0113463
0.0113725
0.0113727
0.0113525
0.0113174
0.0112728
0.011224
0.0111758
0.0111327
0.0110982
0.0110744
0.0110612
0.011056
0.0110522
0.0110398
0.0110057
0.0109357
0.0108184
0.0106479
0.0104256
0.0101591
0.00985868
0.00953348
0.00918911
0.00882753
0.00844945
0.00805872
0.00766836
0.000140418
0.000909803
0.00217429
0.00353066
0.00480709
0.00595178
0.00695492
0.00782211
0.00856448
0.0091946
0.00972484
0.0101666
0.0105301
0.0108245
0.0110579
0.0112372
0.0113692
0.0114598
0.0115148
0.0115396
0.0115399
0.011521
0.0114886
0.011448
0.0114047
0.0113638
0.0113299
0.0113064
0.0112953
0.011296
0.0113047
0.0113134
0.0113102
0.0112802
0.0112085
0.0110839
0.0109022
0.0106669
0.0103875
0.0100747
0.00973727
0.0093791
0.00899994
0.00859818
0.0081759
0.00774568
0.000143897
0.000966755
0.00230697
0.00371681
0.00502594
0.0061872
0.00719502
0.00805879
0.00879284
0.00941219
0.00993093
0.0103616
0.0107151
0.0110008
0.0112269
0.0114007
0.0115285
0.0116163
0.0116698
0.0116946
0.011696
0.0116796
0.011651
0.0116158
0.0115794
0.0115472
0.0115238
0.0115128
0.0115156
0.0115312
0.0115546
0.0115761
0.011582
0.011556
0.0114826
0.0113514
0.0111596
0.0109127
0.0106212
0.0102963
0.0099459
0.00957238
0.00917355
0.00874572
0.00828928
0.00781642
0.000146903
0.00102536
0.00243386
0.00388837
0.00522356
0.00639736
0.00740805
0.00826821
0.00899475
0.00960468
0.0101135
0.0105347
0.0108796
0.0111581
0.0113784
0.0115477
0.0116725
0.0117587
0.0118119
0.0118376
0.0118412
0.0118284
0.0118047
0.0117759
0.0117475
0.0117251
0.0117132
0.0117153
0.0117327
0.0117635
0.0118013
0.0118351
0.0118495
0.0118269
0.0117516
0.0116138
0.0114122
0.0111534
0.0108489
0.0105101
0.0101442
0.00975256
0.0093313
0.0088747
0.00838112
0.0078619
0.000149429
0.0010827
0.00255113
0.0040429
0.00539916
0.00658268
0.00759515
0.00845187
0.00917188
0.00977381
0.0102743
0.0106875
0.0110255
0.0112981
0.0115137
0.0116798
0.0118026
0.0118881
0.0119419
0.0119695
0.0119763
0.0119678
0.0119499
0.0119283
0.0119086
0.0118964
0.0118964
0.0119118
0.0119435
0.0119888
0.0120402
0.0120853
0.0121071
0.0120873
0.0120098
0.0118653
0.0116532
0.0113814
0.011062
0.0107066
0.0103226
0.00991048
0.00946512
0.00897852
0.0084462
0.00787725
0.000151495
0.00113637
0.00265623
0.00417927
0.00555298
0.00674432
0.00775801
0.00861171
0.00932624
0.00992154
0.0104152
0.010822
0.0111542
0.0114222
0.0116344
0.0117982
0.01192
0.0120057
0.012061
0.0120912
0.0121018
0.0120984
0.0120867
0.0120727
0.0120619
0.01206
0.0120715
0.0120995
0.0121444
0.0122029
0.0122665
0.0123216
0.0123501
0.0123325
0.0122526
0.012101
0.0118778
0.0115915
0.011255
0.0108809
0.0104769
0.0100435
0.00957452
0.00905925
0.00848919
0.00786902
0.000153135
0.00118437
0.00274759
0.00429728
0.00568586
0.00688377
0.00789847
0.00874969
0.00945977
0.0100497
0.0105379
0.0109396
0.0112675
0.0115319
0.0117417
0.0119041
0.0120257
0.0121124
0.0121697
0.0122031
0.012218
0.01222
0.0122148
0.0122082
0.0122061
0.0122137
0.0122358
0.012275
0.0123316
0.0124016
0.0124758
0.0125396
0.0125739
0.0125585
0.0124763
0.0123176
0.0120828
0.0117809
0.0114259
0.0110316
0.0106072
0.0101538
0.00966403
0.00912441