/*--------------------------------*- C++ -*----------------------------------*\
  =========                 |
  \\      /  F ield         | OpenFOAM: The Open Source CFD Toolbox
   \\    /   O peration     | Website:  https://openfoam.org
    \\  /    A nd           | Version:  7
     \\/     M anipulation  |
\*---------------------------------------------------------------------------*/
FoamFile
{
    version     2.0;
    format      ascii;
    class       volScalarField;
    location    "0.3";
    object      p;
}
// * * * * * * * * * * * * * * * * * * * * * * * * * * * * * * * * * * * * * //

dimensions      [1 -1 -2 0 0 0 0];

internalField   nonuniform List<scalar> 
9072
(
1402.15
1403.39
1409.06
1416.52
1423.69
1429.93
1435.12
1439.4
1443.01
1446.12
1448.88
1451.4
1453.74
1455.96
1458.07
1460.08
1462.02
1463.87
1465.66
1467.4
1469.13
1470.89
1472.75
1474.83
1477.28
1480.3
1484.16
1489.21
1495.9
1504.77
1516.52
1532.1
1552.42
1578.32
1610.74
1650.65
1698.59
1754.01
1814.38
1874.53
1926.72
1965.57
1981.81
1980.22
1999.64
2048.83
1372.31
1372.73
1377.52
1384.06
1390.58
1396.46
1401.5
1405.74
1409.35
1412.48
1415.24
1417.73
1420.03
1422.17
1424.18
1426.08
1427.88
1429.6
1431.26
1432.88
1434.5
1436.18
1438.01
1440.1
1442.62
1445.78
1449.86
1455.24
1462.35
1471.76
1484.13
1500.22
1521.06
1547.67
1581.02
1622.04
1671.39
1728.78
1791.97
1855.74
1911.07
1950.49
1964.84
1954.44
1952.67
2007.8
1341.96
1342.74
1346.6
1352.01
1357.65
1362.9
1367.53
1371.51
1374.94
1377.92
1380.54
1382.88
1385
1386.94
1388.73
1390.4
1391.96
1393.43
1394.85
1396.25
1397.68
1399.22
1400.96
1403.05
1405.64
1408.99
1413.38
1419.18
1426.87
1436.99
1450.21
1467.27
1489.13
1516.8
1551.23
1593.27
1643.46
1701.49
1765.28
1830
1886.81
1926.77
1942.11
1932.08
1915.4
1973.27
1311.32
1312.73
1316.07
1320.63
1325.44
1330.02
1334.13
1337.73
1340.85
1343.57
1345.94
1348.04
1349.9
1351.56
1353.06
1354.42
1355.67
1356.84
1357.97
1359.09
1360.28
1361.63
1363.24
1365.27
1367.9
1371.39
1376.04
1382.23
1390.43
1401.2
1415.19
1433.13
1455.89
1484.41
1519.64
1562.29
1612.73
1670.48
1733.49
1797.35
1854.23
1895.52
1914.03
1909.3
1892.35
1949.09
1280.44
1282.53
1285.65
1289.61
1293.78
1297.75
1301.35
1304.53
1307.3
1309.71
1311.79
1313.6
1315.17
1316.53
1317.71
1318.75
1319.67
1320.51
1321.32
1322.15
1323.07
1324.2
1325.64
1327.57
1330.18
1333.73
1338.55
1345.01
1353.59
1364.84
1379.41
1397.98
1421.38
1450.49
1486.14
1528.96
1579.14
1636.07
1697.75
1760.24
1816.95
1860.33
1883.58
1887.05
1879.89
1936.68
1249.25
1251.98
1255.04
1258.62
1262.28
1265.74
1268.88
1271.66
1274.08
1276.17
1277.96
1279.47
1280.73
1281.79
1282.65
1283.36
1283.95
1284.46
1284.95
1285.47
1286.12
1287
1288.25
1290.03
1292.56
1296.11
1301
1307.62
1316.43
1327.99
1342.92
1361.9
1385.68
1415.07
1450.82
1493.43
1542.96
1598.72
1658.83
1719.87
1776.46
1822.38
1851.41
1864.42
1871.03
1934.62
1217.74
1221.02
1224.12
1227.44
1230.71
1233.75
1236.49
1238.9
1240.99
1242.78
1244.27
1245.49
1246.46
1247.21
1247.76
1248.15
1248.42
1248.6
1248.77
1248.99
1249.35
1249.97
1250.99
1252.6
1255
1258.48
1263.36
1270.03
1278.95
1290.66
1305.76
1324.92
1348.82
1378.21
1413.75
1455.83
1504.39
1558.73
1617.12
1676.67
1733.11
1781.51
1816.61
1839.6
1862.34
1937.1
1185.93
1189.64
1192.82
1195.97
1198.94
1201.62
1204.02
1206.11
1207.9
1209.4
1210.61
1211.55
1212.24
1212.69
1212.94
1213.02
1212.97
1212.84
1212.69
1212.61
1212.68
1213.03
1213.82
1215.22
1217.46
1220.81
1225.6
1232.22
1241.13
1252.84
1267.94
1287.07
1310.86
1339.99
1375.03
1416.27
1463.6
1516.31
1572.85
1630.82
1686.91
1737.37
1778.13
1810.88
1850.65
1939.4
1153.8
1157.87
1161.14
1164.16
1166.87
1169.27
1171.37
1173.18
1174.7
1175.94
1176.89
1177.57
1177.98
1178.16
1178.12
1177.9
1177.54
1177.1
1176.65
1176.27
1176.05
1176.13
1176.66
1177.83
1179.87
1183.04
1187.68
1194.17
1202.95
1214.53
1229.48
1248.38
1271.84
1300.46
1334.74
1374.89
1420.75
1471.62
1526.15
1582.38
1637.76
1689.56
1735.04
1776.63
1832.82
1936.14
1121.36
1125.72
1129.05
1131.96
1134.47
1136.62
1138.47
1140.04
1141.32
1142.32
1143.03
1143.46
1143.62
1143.53
1143.22
1142.71
1142.06
1141.33
1140.58
1139.89
1139.39
1139.19
1139.46
1140.38
1142.18
1145.13
1149.56
1155.84
1164.4
1175.73
1190.37
1208.88
1231.81
1259.71
1292.99
1331.82
1375.98
1424.81
1477.13
1531.33
1585.47
1637.64
1686.44
1735.17
1806.23
1923.6
1088.61
1093.19
1096.57
1099.38
1101.7
1103.63
1105.27
1106.62
1107.69
1108.48
1108.97
1109.17
1109.09
1108.75
1108.17
1107.4
1106.47
1105.44
1104.4
1103.43
1102.64
1102.16
1102.15
1102.8
1104.34
1107.03
1111.2
1117.2
1125.45
1136.43
1150.63
1168.6
1190.83
1217.81
1249.89
1287.18
1329.42
1376
1425.85
1477.63
1529.82
1581.13
1631.43
1684.7
1768.21
1897.45
1055.54
1060.29
1063.69
1066.39
1068.54
1070.29
1071.73
1072.9
1073.78
1074.37
1074.66
1074.65
1074.35
1073.77
1072.94
1071.9
1070.7
1069.41
1068.08
1066.83
1065.75
1064.98
1064.68
1065.05
1066.3
1068.7
1072.55
1078.22
1086.09
1096.61
1110.28
1127.57
1148.95
1174.84
1205.54
1241.1
1281.23
1325.32
1372.41
1421.27
1470.67
1519.65
1569.11
1623.23
1715.75
1852.07
1022.18
1027.05
1030.43
1033.01
1035
1036.58
1037.85
1038.84
1039.55
1039.96
1040.06
1039.85
1039.34
1038.53
1037.47
1036.19
1034.73
1033.16
1031.56
1030.03
1028.66
1027.6
1027.01
1027.08
1028.02
1030.09
1033.6
1038.87
1046.29
1056.29
1069.31
1085.82
1106.22
1130.88
1160.04
1193.7
1231.54
1272.93
1316.91
1362.33
1407.99
1452.96
1498.74
1548.7
1645.45
1779.1
988.515
993.474
996.8
999.249
1001.08
1002.5
1003.61
1004.44
1004.98
1005.23
1005.15
1004.75
1004.03
1003.01
1001.72
1000.2
998.493
996.664
994.793
992.973
991.32
989.966
989.071
988.821
989.433
991.158
994.279
999.122
1006.05
1015.45
1027.76
1043.38
1062.7
1086.01
1113.51
1145.14
1180.53
1219.01
1259.58
1301.01
1341.94
1381.12
1419.87
1459.22
1553.58
1664.94
954.569
959.58
962.801
965.099
966.782
968.043
969.004
969.687
970.079
970.159
969.912
969.33
968.42
967.196
965.688
963.932
961.979
959.893
957.751
955.651
953.706
952.05
950.842
950.265
950.532
951.885
954.597
958.975
965.359
974.116
985.638
1000.31
1018.46
1040.34
1066.07
1095.56
1128.38
1163.78
1200.66
1237.6
1272.86
1304.41
1332.28
1353.26
1434.58
1484.2
920.359
925.338
928.425
930.559
932.104
933.235
934.066
934.617
934.871
934.807
934.404
933.657
932.568
931.155
929.443
927.472
925.29
922.961
920.564
918.195
915.968
914.016
912.496
911.588
911.5
912.465
914.743
918.622
924.414
932.462
943.121
956.741
973.613
993.935
1017.79
1045.01
1075.11
1107.23
1140.14
1172.08
1200.72
1222.76
1235.33
1230.02
1270.25
1203.41
3.96481
3.96031
3.95728
3.95543
3.95617
3.95968
3.96566
3.9736
3.98282
3.99263
4.00245
4.01177
4.02021
4.02751
4.03353
4.03821
4.04158
4.04374
4.04481
4.04494
4.04426
4.04293
4.04106
4.03877
4.03619
4.03342
4.03057
4.02777
4.02512
4.02271
4.02059
4.0188
4.01738
4.01635
4.01571
4.01545
4.01546
4.01569
3.93591
3.93217
3.92941
3.92719
3.92731
3.93019
3.93557
3.943
3.95181
3.96132
3.97094
3.98017
3.98861
3.99599
4.00214
4.00701
4.01059
4.01297
4.01427
4.01461
4.01413
4.01298
4.01128
4.00914
4.00669
4.00404
4.0013
3.99858
3.996
3.99362
3.99153
3.98976
3.98833
3.98727
3.98658
3.98624
3.98613
3.98629
3.9071
3.90314
3.90048
3.89822
3.89801
3.90047
3.90544
3.91241
3.92085
3.93007
3.93951
3.94864
3.95709
3.96455
3.97084
3.9759
3.9797
3.9823
3.98382
3.98437
3.98409
3.9831
3.98155
3.97955
3.97722
3.97468
3.97203
3.96939
3.96685
3.96449
3.9624
3.96062
3.95918
3.95808
3.95733
3.95692
3.95675
3.95693
3.87818
3.87339
3.87047
3.8683
3.86796
3.87021
3.87489
3.88161
3.88982
3.89885
3.90817
3.91726
3.92573
3.93328
3.93972
3.94495
3.94896
3.95178
3.9535
3.95424
3.95412
3.95328
3.95185
3.94997
3.94776
3.94532
3.94276
3.94017
3.93765
3.93529
3.93318
3.93136
3.92988
3.92875
3.92795
3.92749
3.92728
3.92748
3.8489
3.84302
3.83953
3.83747
3.83713
3.83937
3.84398
3.85062
3.85874
3.8677
3.87698
3.88608
3.8946
3.90225
3.90883
3.91424
3.91843
3.92144
3.92334
3.92424
3.92426
3.92354
3.92221
3.92043
3.91831
3.91596
3.91347
3.91092
3.9084
3.90601
3.90384
3.90197
3.90045
3.89928
3.89845
3.89795
3.89775
3.898
3.81903
3.81201
3.8077
3.80577
3.80557
3.80797
3.81272
3.81943
3.82761
3.83662
3.84595
3.85512
3.86373
3.87149
3.87821
3.88376
3.88811
3.89128
3.89334
3.89438
3.89452
3.8939
3.89266
3.89094
3.88889
3.8866
3.88416
3.88163
3.87909
3.87664
3.8744
3.87247
3.87089
3.86969
3.86884
3.86833
3.86818
3.86852
3.78835
3.78021
3.77495
3.77321
3.77327
3.77601
3.78107
3.78804
3.79643
3.8056
3.81506
3.82436
3.8331
3.84099
3.84784
3.85354
3.85802
3.86132
3.86351
3.86467
3.86492
3.86438
3.8632
3.86153
3.8595
3.85723
3.8548
3.85227
3.8497
3.84719
3.84487
3.84286
3.84123
3.83999
3.83914
3.83865
3.83856
3.839
3.7566
3.74746
3.74116
3.73974
3.74022
3.74348
3.74903
3.75642
3.76516
3.77462
3.78431
3.79379
3.8027
3.81074
3.81773
3.82356
3.82816
3.83157
3.83385
3.8351
3.83544
3.83498
3.83385
3.83219
3.83014
3.82785
3.82539
3.82284
3.82023
3.81766
3.81526
3.81317
3.81147
3.81021
3.80936
3.8089
3.8089
3.80943
3.72343
3.71354
3.70613
3.70528
3.70637
3.71035
3.71657
3.72455
3.7338
3.74366
3.75366
3.76339
3.7725
3.78072
3.78786
3.79382
3.79854
3.80203
3.80438
3.80569
3.80609
3.80568
3.80458
3.80291
3.80082
3.79845
3.79592
3.79332
3.79067
3.78804
3.78557
3.7834
3.78164
3.78035
3.77951
3.77909
3.77917
3.77979
3.68828
3.67814
3.66961
3.66972
3.67166
3.67659
3.68367
3.69241
3.7023
3.7127
3.72311
3.73315
3.74251
3.75093
3.75823
3.76432
3.76915
3.77273
3.77513
3.77646
3.77687
3.77649
3.7754
3.7737
3.77152
3.76903
3.7664
3.76371
3.76101
3.75833
3.7558
3.75356
3.75175
3.75042
3.74959
3.74921
3.74938
3.75009
3.65018
3.64084
3.63125
3.63291
3.63601
3.64214
3.65028
3.65995
3.67064
3.68172
3.69265
3.70309
3.71274
3.72137
3.72884
3.73507
3.74001
3.74367
3.74609
3.74741
3.74779
3.74737
3.74626
3.74451
3.74223
3.7396
3.73682
3.73402
3.73125
3.72853
3.72596
3.72366
3.72179
3.72044
3.7196
3.71927
3.71952
3.7203
3.60749
3.60105
3.5906
3.59465
3.59935
3.60698
3.61639
3.62716
3.6388
3.65068
3.66227
3.6732
3.6832
3.69208
3.69972
3.70607
3.71111
3.71483
3.71728
3.71856
3.71885
3.71834
3.71715
3.71533
3.71295
3.71016
3.70721
3.70426
3.7014
3.69864
3.69603
3.6937
3.69178
3.69039
3.68954
3.68924
3.68957
3.69042
3.55728
3.55803
3.54723
3.55481
3.56165
3.57109
3.58198
3.59403
3.60676
3.61957
3.63194
3.64347
3.65391
3.66308
3.6709
3.67734
3.68244
3.68621
3.68866
3.68988
3.69005
3.68939
3.68806
3.68613
3.68363
3.6807
3.67756
3.67445
3.67147
3.66866
3.66603
3.66366
3.66171
3.66028
3.65942
3.65914
3.65953
3.66045
3.49441
3.51113
3.50088
3.51332
3.52295
3.53454
3.5471
3.56058
3.57453
3.5884
3.60165
3.61389
3.62487
3.6344
3.64242
3.64894
3.65404
3.6578
3.66023
3.66137
3.66139
3.66052
3.65899
3.6569
3.65428
3.6512
3.64789
3.64459
3.64148
3.6386
3.63593
3.63355
3.63157
3.6301
3.62921
3.62895
3.6294
3.63038
3.40856
3.45792
3.45157
3.47019
3.48339
3.49742
3.51184
3.52687
3.54218
3.5572
3.57142
3.58446
3.59605
3.60602
3.61428
3.62088
3.62594
3.6296
3.63194
3.63299
3.63285
3.63174
3.62995
3.62765
3.62487
3.62165
3.61818
3.61471
3.61145
3.60846
3.60576
3.60336
3.60135
3.59984
3.59892
3.59866
3.59917
3.6002
3.28402
3.38704
3.39943
3.42522
3.44285
3.45959
3.4761
3.49288
3.5097
3.52602
3.54131
3.55521
3.56746
3.57789
3.58643
3.59312
3.59813
3.60163
3.6038
3.60469
3.60438
3.60305
3.60098
3.59841
3.59543
3.59207
3.58845
3.58481
3.58139
3.57828
3.57551
3.57307
3.57103
3.56948
3.56853
3.56827
3.56882
3.56991
866.467
871.241
874.153
876.035
877.372
878.322
878.972
879.339
879.401
879.135
878.52
877.546
876.216
874.545
872.559
870.294
867.8
865.139
862.387
859.64
857.008
854.622
852.634
851.218
850.568
850.904
852.461
855.491
860.266
867.077
876.23
888.018
902.68
920.353
941.025
964.436
989.979
1016.64
1042.88
1066.38
1083.63
1088.97
1073.46
1019.44
909.904
499.724
792.076
796.557
799.104
800.647
801.697
802.39
802.791
802.909
802.722
802.201
801.325
800.082
798.469
796.497
794.19
791.579
788.711
785.644
782.451
779.222
776.063
773.099
770.473
768.346
766.9
766.331
766.841
768.631
771.906
776.883
783.799
792.881
804.305
818.132
834.248
852.29
871.528
890.761
908.158
920.948
924.89
913.311
875.31
791.145
639.981
428.734
716.828
720.871
722.929
724.073
724.795
725.199
725.332
725.19
724.748
723.975
722.845
721.341
719.457
717.197
714.577
711.625
708.382
704.901
701.25
697.515
693.798
690.215
686.904
684.019
681.732
680.226
679.675
680.22
681.982
685.089
689.699
695.981
704.068
713.985
725.578
738.445
751.815
764.439
774.471
779.223
774.842
755.945
715.424
644.695
539.272
436.161
640.936
644.411
645.915
646.594
646.923
646.988
646.814
646.386
645.669
644.628
643.235
641.465
639.304
636.748
633.807
630.5
626.863
622.943
618.803
614.523
610.201
605.95
601.901
598.202
595.03
592.573
590.991
590.355
590.671
591.946
594.247
597.695
602.419
608.462
615.702
623.767
631.932
639.037
643.417
642.762
633.964
613.098
575.794
518.091
436.818
344.787
564.648
567.453
568.347
568.473
568.338
568.011
567.485
566.731
565.708
564.374
562.693
560.635
558.176
555.304
552.018
548.331
544.269
539.873
535.201
530.328
525.35
520.377
515.53
510.958
506.85
503.442
500.916
499.261
498.305
497.88
497.937
498.567
499.945
502.212
505.355
509.113
512.866
515.616
515.987
512.132
501.638
481.55
448.696
400.379
334.903
259.446
488.229
490.254
490.491
489.981
489.317
488.54
487.605
486.47
485.089
483.415
481.405
479.02
476.227
473.003
469.335
465.228
460.7
455.783
450.527
445.008
439.321
433.573
427.874
422.36
417.252
412.898
409.592
407.213
405.313
403.445
401.406
399.274
397.343
395.948
395.297
395.315
395.501
395.044
392.921
387.769
377.82
360.833
334.426
296.879
248.184
193.814
411.922
413.024
412.608
411.436
410.193
408.888
407.457
405.857
404.043
401.963
399.566
396.803
393.63
390.01
385.92
381.353
376.319
370.839
364.955
358.745
352.309
345.753
339.157
332.615
326.379
321.036
317.193
314.585
312.283
309.388
305.465
300.601
295.303
290.242
286.014
282.874
280.348
277.74
274.46
269.635
262.103
250.075
231.496
205.032
170.973
132.82
336.042
336.152
335.13
333.316
331.409
329.452
327.399
325.222
322.877
320.308
317.453
314.255
310.653
306.595
302.041
296.975
291.396
285.308
278.736
271.759
264.489
257.031
249.4
241.532
233.636
226.87
222.827
220.972
219.318
216.077
210.469
202.644
193.508
184.314
176.377
170.573
166.088
161.992
158.477
155.339
152.141
147.073
137.554
121.947
100.392
75.4067
261.265
260.374
258.773
256.28
253.494
250.624
247.712
244.755
241.709
238.508
235.072
231.328
227.193
222.585
217.439
211.729
205.439
198.536
191.005
182.951
174.561
165.993
157.099
147.294
136.397
127.001
123.561
124.794
126.134
123.917
116.951
105.846
92.454
78.9935
67.6636
59.848
53.6574
47.3512
42.3939
40.4935
42.7862
47.0128
48.5622
44.5421
35.0196
22.4941
187.986
186.489
184.556
180.962
176.561
172.089
167.762
163.585
159.483
155.349
151.07
146.549
141.668
136.291
130.314
123.711
116.464
108.465
99.6997
90.545
81.4686
72.8478
64.2964
54.1947
41.3091
30.2942
29.4685
36.25
42.9196
43.6231
37.0925
25.1452
11.5061
-0.591944
-9.43695
-15.6176
-22.6035
-30.1517
-38.6864
-44.9743
-44.8697
-38.8115
-32.0942
-28.5928
-28.1703
-28.7226
117.103
117.366
114.527
107.521
100.043
93.4201
87.5561
82.2143
77.1907
72.3085
67.4284
62.4722
57.3279
51.8302
45.8849
39.5585
32.9008
25.7236
18.1932
11.1767
5.44231
1.5414
-0.912581
-3.55033
-7.23806
-8.31803
-6.45245
-2.2382
2.23935
4.26952
2.84279
-0.989026
-4.76099
-7.43513
-8.95147
-10.3429
-12.3177
-16.052
-19.735
-25.5542
-34.0138
-44.7732
-53.9767
-61.3892
-65.8299
-67.6682
58.7269
58.5924
50.691
39.021
31.0014
25.6371
21.3788
17.6551
14.2383
11.004
7.90718
4.99861
2.30704
-0.178113
-2.37042
-4.02855
-4.96542
-5.36926
-5.74859
-6.26245
-6.54523
-6.29351
-5.78783
-5.53993
-5.25234
-4.35767
-4.21694
-4.10373
-4.01814
-4.08945
-4.19347
-4.21659
-4.35514
-4.56087
-4.75151
-4.8619
-4.97636
-5.19543
-5.52823
-5.84372
-6.79912
-10.4311
-15.3282
-21.1624
-29.2303
-42.9504
24.3029
13.7465
7.22228
2.42816
0.520794
-0.442382
-1.11631
-1.67868
-2.19423
-2.69068
-3.16952
-3.60356
-3.97566
-4.27739
-4.47369
-4.50356
-4.327
-3.82554
-3.72329
-3.68174
-3.71989
-3.76388
-3.8042
-3.93104
-4.10629
-4.01025
-3.9389
-3.90678
-3.97084
-4.1935
-4.26316
-4.26112
-4.30206
-4.37637
-4.459
-4.53765
-4.61585
-4.69223
-4.75789
-4.82895
-5.01171
-5.51173
-6.1811
-6.53421
-7.07807
-9.90435
-3.18072
-2.61698
-2.92485
-3.1555
-3.13734
-3.12705
-3.14193
-3.17033
-3.20583
-3.24624
-3.28976
-3.33445
-3.38008
-3.42876
-3.48084
-3.53302
-3.57134
-3.50869
-3.463
-3.46935
-3.51037
-3.57178
-3.64965
-3.75383
-3.88718
-4.0148
-4.05698
-4.08428
-4.14188
-4.25598
-4.35014
-4.40199
-4.46593
-4.5483
-4.64002
-4.73558
-4.83764
-4.9521
-5.06615
-5.12681
-5.16611
-5.26297
-5.43483
-5.54955
-5.67625
-6.07454
-3.34715
-3.20427
-3.21217
-3.19765
-3.16346
-3.13623
-3.12149
-3.11693
-3.12078
-3.13235
-3.15125
-3.17729
-3.21083
-3.25306
-3.30564
-3.37103
-3.45288
-3.54425
-3.58526
-3.6241
-3.67549
-3.74049
-3.81839
-3.90907
-4.00959
-4.10735
-4.16974
-4.22305
-4.28841
-4.3723
-4.45539
-4.52581
-4.60151
-4.68788
-4.78141
-4.87905
-4.98172
-5.09087
-5.20138
-5.30739
-5.40949
-5.53284
-5.68085
-5.80071
-5.86961
-5.9325
-3.35298
-3.30209
-3.27132
-3.25663
-3.24154
-3.22959
-3.22515
-3.22887
-3.24013
-3.25837
-3.28318
-3.31437
-3.35206
-3.39667
-3.44859
-3.5077
-3.57316
-3.64041
-3.69273
-3.74219
-3.79865
-3.8647
-3.94028
-4.02416
-4.11205
-4.19512
-4.26583
-4.33274
-4.40516
-4.48542
-4.56563
-4.64263
-4.72292
-4.81001
-4.90309
-5.00083
-5.10327
-5.21055
-5.32161
-5.43646
-5.55801
-5.69421
-5.84208
-5.9803
-6.10087
-6.22618
-3.38025
-3.35318
-3.33573
-3.32278
-3.31421
-3.30927
-3.31024
-3.31822
-3.33307
-3.35441
-3.38186
-3.41517
-3.45427
-3.49918
-3.54975
-3.60529
-3.66411
-3.72331
-3.77933
-3.83605
-3.89769
-3.9662
-4.04155
-4.12254
-4.20611
-4.28741
-4.36364
-4.43796
-4.51475
-4.59538
-4.67678
-4.75799
-4.84198
-4.93097
-5.02518
-5.12414
-5.22771
-5.33575
-5.44781
-5.56392
-5.6861
-5.81754
-5.95645
-6.0951
-6.23214
-6.37423
-3.43674
-3.41982
-3.40609
-3.39523
-3.38913
-3.38747
-3.39131
-3.40142
-3.41787
-3.4404
-3.46873
-3.50262
-3.54192
-3.5865
-3.63609
-3.69012
-3.74754
-3.80676
-3.86663
-3.92845
-3.99424
-4.06507
-4.14089
-4.22069
-4.30255
-4.38388
-4.46309
-4.54137
-4.62083
-4.70251
-4.78562
-4.87012
-4.95748
-5.04909
-5.14534
-5.24609
-5.35113
-5.46026
-5.57319
-5.69005
-5.81203
-5.94056
-6.07515
-6.21264
-6.3518
-6.49384
-3.50843
-3.49153
-3.47994
-3.47126
-3.46736
-3.46835
-3.47462
-3.48663
-3.50447
-3.52799
-3.55698
-3.59126
-3.63065
-3.67498
-3.724
-3.77731
-3.83426
-3.89409
-3.95624
-4.02113
-4.08955
-4.16198
-4.23826
-4.31761
-4.3987
-4.48003
-4.56067
-4.64105
-4.72229
-4.8052
-4.89001
-4.97709
-5.06734
-5.1616
-5.26015
-5.36285
-5.46943
-5.57965
-5.69342
-5.81106
-5.93347
-6.06169
-6.19567
-6.33396
-6.47515
-6.61866
-3.58112
-3.56574
-3.55627
-3.54991
-3.54821
-3.55146
-3.55978
-3.57341
-3.59243
-3.61675
-3.64623
-3.68073
-3.72011
-3.76421
-3.81286
-3.86575
-3.9225
-3.98268
-4.046
-4.11249
-4.18238
-4.25574
-4.33229
-4.41134
-4.49195
-4.57315
-4.65437
-4.73582
-4.8182
-4.90228
-4.98864
-5.07785
-5.17059
-5.26734
-5.36816
-5.47283
-5.58098
-5.69242
-5.80725
-5.92598
-6.04958
-6.17899
-6.3144
-6.45499
-6.59914
-6.74506
-3.65413
-3.6414
-3.63423
-3.6302
-3.63053
-3.63564
-3.64558
-3.66048
-3.68039
-3.70525
-3.73501
-3.76956
-3.80882
-3.85266
-3.90097
-3.95354
-4.01012
-4.07045
-4.1343
-4.20157
-4.27217
-4.34592
-4.42242
-4.50107
-4.58114
-4.66197
-4.74323
-4.82511
-4.90819
-4.99324
-5.08097
-5.17204
-5.26698
-5.366
-5.46898
-5.57555
-5.68533
-5.79822
-5.91456
-6.03515
-6.16109
-6.29332
-6.43209
-6.57665
-6.72515
-6.87508
-3.72723
-3.71796
-3.71305
-3.71114
-3.71325
-3.71986
-3.73105
-3.74689
-3.76742
-3.79265
-3.82252
-3.85701
-3.89605
-3.93958
-3.98752
-4.03974
-4.09608
-4.15633
-4.22029
-4.28777
-4.35851
-4.43217
-4.5083
-4.58633
-4.66567
-4.74588
-4.8268
-4.9087
-4.99216
-5.07799
-5.16696
-5.25971
-5.35663
-5.45774
-5.56274
-5.67117
-5.78269
-5.89743
-6.01602
-6.13959
-6.26938
-6.40631
-6.5505
-6.70105
-6.8558
-7.01187
-3.80043
-3.79484
-3.79188
-3.79177
-3.79538
-3.80319
-3.81532
-3.83185
-3.85281
-3.87823
-3.90811
-3.94243
-3.98118
-4.02434
-4.07186
-4.12367
-4.17964
-4.23959
-4.30332
-4.37058
-4.44102
-4.51421
-4.58965
-4.66682
-4.74523
-4.82461
-4.90494
-4.9866
-5.07026
-5.15673
-5.24682
-5.34112
-5.43987
-5.54293
-5.64984
-5.76014
-5.87366
-5.99081
-6.11263
-6.24054
-6.37591
-6.51953
-6.67126
-6.82994
-6.99314
-7.15772
-3.87354
-3.87127
-3.86985
-3.87123
-3.87606
-3.88481
-3.89766
-3.91468
-3.93592
-3.96142
-3.9912
-4.02529
-4.06368
-4.1064
-4.15344
-4.20474
-4.26021
-4.31968
-4.38292
-4.44964
-4.51943
-4.59184
-4.66633
-4.74243
-4.81975
-4.89813
-4.97773
-5.05901
-5.14274
-5.22977
-5.32089
-5.41662
-5.51706
-5.62192
-5.73068
-5.84296
-5.95883
-6.07913
-6.20528
-6.33902
-6.48172
-6.63396
-6.79525
-6.96417
-7.13813
-7.31376
-3.94603
-3.94642
-3.94617
-3.94876
-3.95458
-3.9641
-3.9775
-3.99488
-4.01628
-4.04177
-4.07139
-4.10518
-4.14316
-4.18539
-4.23187
-4.28257
-4.33742
-4.39623
-4.45876
-4.52469
-4.59359
-4.66496
-4.7383
-4.81317
-4.88927
-4.96657
-5.04533
-5.12616
-5.20989
-5.2974
-5.38946
-5.48649
-5.58847
-5.69501
-5.8056
-5.92001
-6.0387
-6.16293
-6.29456
-6.43553
-6.58714
-6.74966
-6.9223
-7.10347
-7.2905
-7.47989
-4.01715
-4.01955
-4.02021
-4.02381
-4.03046
-4.04061
-4.05447
-4.07211
-4.09361
-4.11902
-4.14842
-4.18185
-4.21938
-4.26105
-4.3069
-4.35691
-4.411
-4.469
-4.53064
-4.59557
-4.66337
-4.73353
-4.80557
-4.8791
-4.95391
-5.03006
-5.10796
-5.18829
-5.27195
-5.35987
-5.45275
-5.55093
-5.65428
-5.76237
-5.87478
-5.99154
-6.11353
-6.24248
-6.38061
-6.52998
-6.69173
-6.86584
-7.0513
-7.24657
-7.4491
-7.65523
-4.08617
-4.09005
-4.09147
-4.09598
-4.10337
-4.11408
-4.12832
-4.14617
-4.1677
-4.19297
-4.22209
-4.25512
-4.29213
-4.33319
-4.37832
-4.42753
-4.48074
-4.53778
-4.59837
-4.66216
-4.7287
-4.79752
-4.86815
-4.94028
-5.01375
-5.08875
-5.16576
-5.24556
-5.32911
-5.41732
-5.51087
-5.61
-5.71453
-5.82404
-5.93828
-6.05761
-6.18336
-6.3177
-6.46314
-6.62172
-6.79442
-6.98099
-7.18046
-7.39165
-7.61235
-7.83864
-4.15249
-4.15742
-4.15963
-4.16498
-4.17306
-4.18429
-4.19886
-4.21686
-4.23837
-4.26345
-4.29223
-4.32479
-4.36122
-4.40159
-4.44594
-4.49426
-4.54648
-4.60243
-4.66185
-4.72436
-4.78954
-4.85693
-4.9261
-4.99678
-5.06891
-5.14275
-5.21886
-5.2981
-5.38145
-5.46982
-5.56384
-5.66368
-5.76916
-5.87995
-5.99601
-6.1181
-6.24797
-6.38818
-6.54138
-6.70958
-6.89357
-7.0931
-7.3076
-7.53661
-7.77846
-8.0289
-4.21574
-4.22137
-4.22444
-4.2306
-4.23937
-4.25109
-4.26595
-4.28405
-4.30547
-4.33031
-4.35869
-4.39073
-4.42652
-4.46613
-4.50962
-4.55697
-4.60811
-4.66288
-4.72102
-4.78217
-4.84591
-4.91181
-4.97948
-5.04871
-5.11949
-5.19217
-5.26737
-5.346
-5.42903
-5.51737
-5.61159
-5.71187
-5.81803
-5.9299
-6.04774
-6.17267
-6.30686
-6.4531
-6.61414
-6.79187
-6.98705
-7.19975
-7.4302
-7.67905
-7.94533
-8.22435
-4.2758
-4.28178
-4.2858
-4.29277
-4.3022
-4.31438
-4.32949
-4.34765
-4.36894
-4.3935
-4.42145
-4.45291
-4.488
-4.5268
-4.56936
-4.61567
-4.66566
-4.71918
-4.77596
-4.83567
-4.89791
-4.96228
-5.02843
-5.09619
-5.16563
-5.23713
-5.31138
-5.38929
-5.47183
-5.55989
-5.65401
-5.75436
-5.86089
-5.97361
-6.09308
-6.2208
-6.35921
-6.51129
-6.67975
-6.86645
-7.07232
-7.29812
-7.5453
-7.81594
-8.10987
-8.42211
-4.33272
-4.33867
-4.34371
-4.3515
-4.36159
-4.37421
-4.38953
-4.40769
-4.42883
-4.45307
-4.48055
-4.5114
-4.54575
-4.58368
-4.62525
-4.67045
-4.71922
-4.77141
-4.82677
-4.88498
-4.94567
-5.00846
-5.07306
-5.13935
-5.20743
-5.27772
-5.35094
-5.42798
-5.50982
-5.59729
-5.69093
-5.79096
-5.89747
-6.0107
-6.13153
-6.26175
-6.40399
-6.56126
-6.73623
-6.93083
-7.14647
-7.38494
-7.64923
-7.94304
-8.26718
-8.61677
-4.38648
-4.39215
-4.39835
-4.40696
-4.41767
-4.43067
-4.44616
-4.4643
-4.48524
-4.50912
-4.5361
-4.56631
-4.59987
-4.63688
-4.6774
-4.72143
-4.76891
-4.81969
-4.87356
-4.93021
-4.9893
-5.05048
-5.1135
-5.17827
-5.24496
-5.31398
-5.38605
-5.46205
-5.54292
-5.62945
-5.72219
-5.82146
-5.92749
-6.04081
-6.16254
-6.29471
-6.44001
-6.60137
-6.78145
-6.98238
-7.20635
-7.45645
-7.73737
-8.05453
-8.40998
-8.79993
-4.43708
-4.4425
-4.44986
-4.4593
-4.47058
-4.48392
-4.49953
-4.5176
-4.5383
-4.56179
-4.58823
-4.61774
-4.65047
-4.6865
-4.7259
-4.76869
-4.81481
-4.86413
-4.91644
-4.97147
-5.02889
-5.08841
-5.14981
-5.21303
-5.27825
-5.3459
-5.41668
-5.49142
-5.57101
-5.65621
-5.74762
-5.84563
-5.95069
-6.06356
-6.18556
-6.31887
-6.46609
-6.63003
-6.81334
-7.01855
-7.24876
-7.5085
-7.80411
-8.14281
-8.52842
-8.96
-4.48452
-4.49023
-4.49849
-4.50868
-4.52047
-4.53408
-4.54976
-4.56772
-4.58814
-4.61119
-4.63703
-4.6658
-4.69763
-4.73263
-4.77086
-4.81235
-4.85704
-4.90483
-4.95551
-5.00886
-5.06456
-5.12236
-5.18208
-5.24368
-5.30735
-5.37352
-5.44282
-5.51606
-5.59403
-5.6775
-5.76707
-5.86329
-5.96678
-6.07853
-6.20004
-6.33342
-6.48115
-6.64583
-6.83013
-7.03706
-7.27066
-7.53681
-7.84296
-8.19851
-8.60954
-9.08011
-4.5292
-4.53535
-4.54438
-4.55523
-4.56745
-4.58128
-4.59698
-4.61478
-4.63487
-4.65743
-4.68262
-4.7106
-4.74148
-4.77539
-4.81239
-4.85251
-4.89572
-4.94191
-4.99092
-5.04252
-5.09645
-5.15247
-5.21044
-5.27034
-5.33236
-5.3969
-5.46454
-5.536
-5.61203
-5.69334
-5.78057
-5.8744
-5.97564
-6.08545
-6.20545
-6.33762
-6.4842
-6.64757
-6.83038
-7.03605
-7.26949
-7.53765
-7.84703
-8.21126
-8.63718
-9.13562
-4.57143
-4.57801
-4.5877
-4.59911
-4.61169
-4.62567
-4.64133
-4.65892
-4.67863
-4.70065
-4.72515
-4.75227
-4.78216
-4.81493
-4.85065
-4.88935
-4.93102
-4.97557
-5.02285
-5.07265
-5.12474
-5.17892
-5.23507
-5.29317
-5.35341
-5.41614
-5.4819
-5.55132
-5.62506
-5.70381
-5.78822
-5.87906
-5.97731
-6.08427
-6.20158
-6.33105
-6.47465
-6.63448
-6.81314
-7.01428
-7.2431
-7.50654
-7.8129
-8.17309
-8.5969
-9.09893
-4.61147
-4.61841
-4.62865
-4.64051
-4.65335
-4.66742
-4.68299
-4.70031
-4.7196
-4.74104
-4.7648
-4.79104
-4.81989
-4.85147
-4.88586
-4.92311
-4.9632
-5.00605
-5.05154
-5.09948
-5.14968
-5.20194
-5.25616
-5.31234
-5.37064
-5.43139
-5.49505
-5.56215
-5.63328
-5.70906
-5.79017
-5.87744
-5.97196
-6.07512
-6.18849
-6.31372
-6.45245
-6.60651
-6.77835
-6.97163
-7.19145
-7.44427
-7.73786
-8.08141
-8.48372
-8.95752
-4.64955
-4.65677
-4.66744
-4.67964
-4.69266
-4.70674
-4.72216
-4.73918
-4.758
-4.77882
-4.8018
-4.82712
-4.85489
-4.88525
-4.91828
-4.95403
-4.99249
-5.03361
-5.07726
-5.12328
-5.1715
-5.22175
-5.27394
-5.32807
-5.38427
-5.44284
-5.50415
-5.56866
-5.63687
-5.70934
-5.78671
-5.86985
-5.95992
-6.0583
-6.16651
-6.28597
-6.41803
-6.5642
-6.72676
-6.90911
-7.11588
-7.35261
-7.62568
-7.94242
-8.3096
-8.73561
-4.68589
-4.69332
-4.70429
-4.71673
-4.72983
-4.74385
-4.75907
-4.77573
-4.79405
-4.81421
-4.83639
-4.86075
-4.88743
-4.91653
-4.94817
-4.98238
-5.01917
-5.0585
-5.10025
-5.1443
-5.19047
-5.23862
-5.28866
-5.34058
-5.39452
-5.45069
-5.50942
-5.57108
-5.63608
-5.7049
-5.77815
-5.85668
-5.94163
-6.03436
-6.13625
-6.24853
-6.37226
-6.50869
-6.65978
-6.82853
-7.01884
-7.23506
-7.48207
-7.7654
-8.09018
-8.46262
-4.7207
-4.72825
-4.73941
-4.75197
-4.76508
-4.77896
-4.79392
-4.81018
-4.82796
-4.84744
-4.86879
-4.89217
-4.91771
-4.94554
-4.97575
-5.00838
-5.04347
-5.08096
-5.12077
-5.16278
-5.20682
-5.25277
-5.30054
-5.35012
-5.4016
-5.45517
-5.51109
-5.56965
-5.63119
-5.69608
-5.76488
-5.83838
-5.91766
-6.00397
-6.09857
-6.20245
-6.31645
-6.44156
-6.57941
-6.73243
-6.90364
-7.09614
-7.3133
-7.55898
-7.83699
-8.15254
-4.75414
-4.76172
-4.77297
-4.78555
-4.79857
-4.81226
-4.8269
-4.84272
-4.85992
-4.87869
-4.89918
-4.92156
-4.94595
-4.97248
-5.00122
-5.03226
-5.06559
-5.10121
-5.13902
-5.17892
-5.22077
-5.26443
-5.30982
-5.35691
-5.40578
-5.45656
-5.50946
-5.5647
-5.62253
-5.68327
-5.74737
-5.81552
-5.88868
-5.96799
-6.0545
-6.14904
-6.25223
-6.36482
-6.48809
-6.62385
-6.77419
-6.94101
-7.12624
-7.33218
-7.5613
-7.81864
-4.78633
-4.79388
-4.80511
-4.81761
-4.83047
-4.8439
-4.85817
-4.87351
-4.8901
-4.90813
-4.92775
-4.9491
-4.97232
-4.99751
-5.02478
-5.05418
-5.08574
-5.11943
-5.15521
-5.19295
-5.23253
-5.27382
-5.31673
-5.36122
-5.40732
-5.45513
-5.50482
-5.55655
-5.6105
-5.66689
-5.72609
-5.78867
-5.85544
-5.92733
-6.00522
-6.08977
-6.18141
-6.28068
-6.3885
-6.5061
-6.63466
-6.77498
-6.92765
-7.09342
-7.27318
-7.47018
-4.8174
-4.82485
-4.83596
-4.84829
-4.86091
-4.87401
-4.88787
-4.90269
-4.91865
-4.93592
-4.95464
-4.97495
-4.99697
-5.02082
-5.04658
-5.07432
-5.10407
-5.13582
-5.16951
-5.20505
-5.24231
-5.28117
-5.32152
-5.3633
-5.40651
-5.45122
-5.49755
-5.5456
-5.59551
-5.64742
-5.7016
-5.75848
-5.81869
-5.88296
-5.95198
-6.02619
-6.10591
-6.19147
-6.28346
-6.38256
-6.48922
-6.6033
-6.7242
-6.85131
-6.98398
-7.12291
-4.84745
-4.85473
-4.86562
-4.8777
-4.89001
-4.90274
-4.91614
-4.93041
-4.94571
-4.96219
-4.97999
-4.99924
-5.02006
-5.04254
-5.06679
-5.09285
-5.12077
-5.15055
-5.18213
-5.21544
-5.25035
-5.28672
-5.32445
-5.36345
-5.40368
-5.44518
-5.48802
-5.53228
-5.57803
-5.62537
-5.67446
-5.7256
-5.77922
-5.83586
-5.89597
-5.95984
-6.02763
-6.09951
-6.17576
-6.25663
-6.34196
-6.4309
-6.522
-6.61355
-6.70373
-6.79059
-4.87656
-4.88362
-4.89422
-4.90595
-4.9179
-4.93021
-4.94312
-4.9568
-4.97141
-4.98709
-5.00397
-5.02215
-5.04175
-5.06286
-5.08558
-5.10996
-5.13604
-5.16383
-5.19328
-5.22434
-5.25686
-5.29073
-5.3258
-5.36197
-5.39917
-5.4374
-5.47668
-5.51705
-5.55858
-5.60129
-5.64527
-5.69069
-5.73781
-5.78695
-5.83835
-5.89214
-5.94833
-6.00694
-6.06802
-6.13144
-6.19662
-6.26226
-6.32632
-6.38641
-6.44002
-6.48304
-4.90482
-4.91162
-4.92185
-4.93318
-4.9447
-4.95655
-4.96893
-4.98201
-4.99591
-5.01078
-5.02672
-5.04383
-5.06221
-5.08196
-5.10314
-5.12583
-5.15007
-5.17587
-5.20319
-5.23198
-5.26211
-5.29346
-5.32586
-5.35919
-5.39334
-5.42826
-5.46394
-5.50041
-5.53767
-5.57575
-5.61466
-5.65445
-5.69523
-5.73712
-5.78017
-5.82435
-5.86954
-5.91562
-5.96244
-6.00962
-6.05632
-6.10097
-6.14126
-6.17447
-6.1979
-6.20616
-4.93232
-4.93883
-4.94863
-4.95951
-4.97056
-4.98191
-4.99374
-5.00618
-5.01937
-5.03342
-5.04841
-5.06445
-5.08162
-5.1
-5.11967
-5.14068
-5.16308
-5.18689
-5.21209
-5.23861
-5.26636
-5.29519
-5.32493
-5.35543
-5.38654
-5.41817
-5.45028
-5.48284
-5.51587
-5.54935
-5.58325
-5.61754
-5.65221
-5.68719
-5.72238
-5.75759
-5.79258
-5.8271
-5.86085
-5.89331
-5.92348
-5.94971
-5.96967
-5.98065