/*--------------------------------*- C++ -*----------------------------------*\
  =========                 |
  \\      /  F ield         | OpenFOAM: The Open Source CFD Toolbox
   \\    /   O peration     | Website:  https://openfoam.org
    \\  /    A nd           | Version:  7
     \\/     M anipulation  |
\*---------------------------------------------------------------------------*/
FoamFile
{
    version     2.0;
    format      ascii;
    class       volScalarField;
    location    "0.3";
    object      p_rgh;
}
// * * * * * * * * * * * * * * * * * * * * * * * * * * * * * * * * * * * * * //

dimensions      [1 -1 -2 0 0 0 0];

internalField   nonuniform List<scalar> 
9072
(
1416.87
1418.1
1423.77
1431.24
1438.41
1444.64
1449.83
1454.12
1457.72
1460.83
1463.6
1466.11
1468.46
1470.67
1472.78
1474.8
1476.73
1478.59
1480.38
1482.12
1483.84
1485.6
1487.47
1489.55
1491.99
1495.01
1498.87
1503.93
1510.61
1519.49
1531.24
1546.82
1567.13
1593.03
1625.45
1665.36
1713.3
1768.73
1829.1
1889.24
1941.43
1979.81
1994.19
1992.6
2013.72
2063.49
1416.46
1416.87
1421.66
1428.2
1434.73
1440.61
1445.64
1449.89
1453.5
1456.62
1459.38
1461.88
1464.17
1466.31
1468.32
1470.22
1472.03
1473.75
1475.41
1477.03
1478.65
1480.33
1482.15
1484.24
1486.76
1489.92
1494.01
1499.38
1506.49
1515.9
1528.27
1544.36
1565.21
1591.82
1625.16
1666.18
1715.53
1772.92
1836.12
1899.88
1955.21
1994.64
2003.12
1992.29
1996.65
2051.76
1415.53
1416.31
1420.17
1425.59
1431.22
1436.48
1441.1
1445.09
1448.52
1451.49
1454.12
1456.46
1458.58
1460.52
1462.31
1463.97
1465.53
1467.01
1468.43
1469.83
1471.26
1472.8
1474.54
1476.62
1479.22
1482.56
1486.95
1492.76
1500.44
1510.56
1523.78
1540.84
1562.71
1590.37
1624.8
1666.84
1717.04
1775.06
1838.85
1903.57
1960.38
2000.34
2014.79
2001.02
1988.7
2046.24
1414.32
1415.73
1419.08
1423.63
1428.44
1433.02
1437.13
1440.73
1443.85
1446.57
1448.95
1451.04
1452.9
1454.57
1456.07
1457.43
1458.68
1459.85
1460.97
1462.09
1463.29
1464.63
1466.25
1468.27
1470.91
1474.4
1479.04
1485.24
1493.44
1504.21
1518.2
1536.14
1558.89
1587.42
1622.64
1665.29
1715.73
1773.49
1836.5
1900.35
1957.23
1998.52
2017.03
2012.3
1995.3
2051.25
1412.87
1414.96
1418.08
1422.05
1426.21
1430.18
1433.78
1436.96
1439.73
1442.14
1444.22
1446.03
1447.6
1448.96
1450.15
1451.18
1452.1
1452.94
1453.75
1454.58
1455.51
1456.63
1458.07
1460
1462.61
1466.16
1470.98
1477.44
1486.02
1497.28
1511.84
1530.42
1553.81
1582.92
1618.58
1661.39
1711.57
1768.5
1830.18
1892.67
1949.38
1992.77
2016.01
2019.48
2012.32
2068.34
1411.11
1413.84
1416.9
1420.48
1424.14
1427.6
1430.74
1433.52
1435.94
1438.03
1439.82
1441.33
1442.6
1443.65
1444.51
1445.22
1445.81
1446.33
1446.81
1447.34
1447.98
1448.86
1450.11
1451.89
1454.42
1457.97
1462.86
1469.48
1478.29
1489.85
1504.78
1523.76
1547.54
1576.93
1612.68
1655.29
1704.82
1760.58
1820.69
1881.73
1938.32
1984.24
2013.27
2026.28
2032.89
2096.44
1409.04
1412.31
1415.41
1418.73
1422
1425.04
1427.78
1430.19
1432.29
1434.07
1435.56
1436.78
1437.75
1438.5
1439.05
1439.44
1439.71
1439.89
1440.06
1440.28
1440.64
1441.26
1442.28
1443.89
1446.3
1449.77
1454.65
1461.32
1470.24
1481.95
1497.05
1516.21
1540.11
1569.51
1605.04
1647.12
1695.68
1750.02
1808.41
1867.96
1924.4
1972.8
2007.9
2030.89
2053.63
2127.93
1406.65
1410.36
1413.55
1416.69
1419.66
1422.34
1424.74
1426.83
1428.62
1430.12
1431.33
1432.27
1432.96
1433.41
1433.66
1433.74
1433.69
1433.56
1433.41
1433.33
1433.4
1433.75
1434.54
1435.94
1438.18
1441.53
1446.32
1452.94
1461.85
1473.56
1488.66
1507.79
1531.58
1560.71
1595.75
1636.99
1684.32
1737.03
1793.57
1851.55
1907.63
1958.09
1998.85
2031.6
2071.37
2159.5
1403.95
1408.02
1411.29
1414.31
1417.02
1419.42
1421.52
1423.33
1424.85
1426.09
1427.04
1427.72
1428.13
1428.31
1428.27
1428.05
1427.69
1427.25
1426.8
1426.42
1426.2
1426.28
1426.81
1427.98
1430.02
1433.19
1437.83
1444.32
1453.1
1464.68
1479.63
1498.53
1521.99
1550.61
1584.89
1625.04
1670.9
1721.77
1776.3
1832.53
1887.91
1939.71
1985.19
2026.78
2082.97
2185.59
1400.94
1405.3
1408.63
1411.54
1414.05
1416.2
1418.05
1419.61
1420.9
1421.9
1422.61
1423.04
1423.2
1423.11
1422.79
1422.29
1421.64
1420.91
1420.15
1419.47
1418.97
1418.77
1419.04
1419.95
1421.76
1424.71
1429.14
1435.42
1443.98
1455.31
1469.95
1488.46
1511.39
1539.29
1572.57
1611.4
1655.56
1704.38
1756.71
1810.91
1865.05
1917.21
1966.02
2014.75
2085.8
2202.4
1397.61
1402.2
1405.58
1408.38
1410.7
1412.64
1414.28
1415.63
1416.7
1417.49
1417.98
1418.18
1418.1
1417.76
1417.18
1416.4
1415.47
1414.45
1413.41
1412.44
1411.65
1411.17
1411.16
1411.81
1413.35
1416.04
1420.2
1426.2
1434.46
1445.43
1459.64
1477.61
1499.84
1526.82
1558.9
1596.19
1638.43
1685.01
1734.86
1786.64
1838.83
1890.14
1940.44
1993.71
2077.22
2205.61
1393.98
1398.73
1402.13
1404.83
1406.98
1408.73
1410.17
1411.34
1412.22
1412.81
1413.1
1413.09
1412.78
1412.2
1411.38
1410.34
1409.14
1407.84
1406.52
1405.26
1404.19
1403.42
1403.12
1403.49
1404.74
1407.14
1410.99
1416.65
1424.52
1435.05
1448.71
1466.01
1487.39
1513.28
1543.98
1579.53
1619.67
1663.76
1710.84
1759.71
1809.11
1858.09
1907.54
1961.67
2054.19
2189.58
1390.04
1394.92
1398.3
1400.88
1402.87
1404.45
1405.72
1406.71
1407.42
1407.83
1407.93
1407.72
1407.2
1406.4
1405.34
1404.05
1402.6
1401.03
1399.43
1397.89
1396.53
1395.47
1394.88
1394.94
1395.88
1397.96
1401.46
1406.74
1414.16
1424.16
1437.18
1453.69
1474.09
1498.75
1527.91
1561.57
1599.41
1640.79
1684.78
1730.19
1775.86
1820.83
1866.6
1916.56
2013.31
2146.03
1385.81
1390.77
1394.1
1396.54
1398.38
1399.79
1400.9
1401.74
1402.28
1402.52
1402.44
1402.04
1401.33
1400.31
1399.02
1397.5
1395.79
1393.96
1392.09
1390.27
1388.62
1387.26
1386.37
1386.12
1386.73
1388.45
1391.58
1396.42
1403.34
1412.75
1425.05
1440.68
1460
1483.31
1510.8
1542.43
1577.82
1616.3
1656.88
1698.31
1739.24
1778.42
1817.17
1856.51
1950.88
2061.38
1381.3
1386.31
1389.53
1391.82
1393.51
1394.77
1395.73
1396.41
1396.8
1396.89
1396.64
1396.06
1395.15
1393.92
1392.41
1390.66
1388.7
1386.62
1384.48
1382.38
1380.43
1378.78
1377.57
1376.99
1377.26
1378.61
1381.32
1385.7
1392.08
1400.84
1412.36
1427.04
1445.19
1467.06
1492.79
1522.28
1555.1
1590.5
1627.39
1664.32
1699.58
1731.13
1759.01
1779.99
1861.31
1910
1376.51
1381.49
1384.58
1386.71
1388.26
1389.39
1390.22
1390.77
1391.03
1390.96
1390.56
1389.81
1388.72
1387.31
1385.6
1383.63
1381.44
1379.12
1376.72
1374.35
1372.12
1370.17
1368.65
1367.74
1367.66
1368.62
1370.9
1374.78
1380.57
1388.62
1399.28
1412.9
1429.77
1450.09
1473.94
1501.17
1531.26
1563.39
1596.29
1628.23
1656.87
1678.92
1691.49
1686.17
1726.4
1658.57
3.97952
3.97503
3.97199
3.97015
3.97089
3.9744
3.98037
3.98832
3.99754
4.00735
4.01717
4.02649
4.03493
4.04223
4.04824
4.05292
4.05629
4.05845
4.05952
4.05965
4.05898
4.05764
4.05578
4.05349
4.0509
4.04813
4.04529
4.04249
4.03984
4.03742
4.0353
4.03352
4.0321
4.03106
4.03042
4.03016
4.03017
4.0304
3.98006
3.97631
3.97355
3.97134
3.97146
3.97434
3.97971
3.98715
3.99596
4.00546
4.01509
4.02431
4.03275
4.04013
4.04629
4.05115
4.05473
4.05711
4.05841
4.05875
4.05828
4.05713
4.05542
4.05329
4.05084
4.04818
4.04544
4.04273
4.04014
4.03777
4.03567
4.0339
4.03248
4.03142
4.03072
4.03038
4.03027
4.03043
3.98068
3.97672
3.97405
3.9718
3.97159
3.97405
3.97901
3.98598
3.99442
4.00364
4.01308
4.02222
4.03066
4.03812
4.04442
4.04947
4.05327
4.05588
4.0574
4.05795
4.05766
4.05667
4.05512
4.05312
4.05079
4.04825
4.0456
4.04296
4.04042
4.03807
4.03598
4.0342
4.03275
4.03166
4.03091
4.0305
4.03032
4.03051
3.98118
3.97639
3.97347
3.97131
3.97096
3.97321
3.97789
3.98462
3.99282
4.00186
4.01117
4.02026
4.02873
4.03628
4.04272
4.04796
4.05196
4.05478
4.05651
4.05725
4.05712
4.05628
4.05485
4.05297
4.05076
4.04832
4.04576
4.04317
4.04065
4.0383
4.03618
4.03437
4.03289
4.03175
4.03096
4.03049
4.03028
4.03048
3.98133
3.97546
3.97196
3.9699
3.96957
3.9718
3.97642
3.98305
3.99117
4.00013
4.00941
4.01851
4.02703
4.03468
4.04126
4.04667
4.05086
4.05387
4.05577
4.05668
4.05669
4.05597
4.05464
4.05286
4.05074
4.04839
4.0459
4.04335
4.04083
4.03844
4.03627
4.03441
4.03288
4.03171
4.03088
4.03038
4.03018
4.03043
3.98089
3.97387
3.96957
3.96764
3.96743
3.96983
3.97458
3.98129
3.98948
3.99848
4.00781
4.01698
4.02559
4.03335
4.04007
4.04562
4.04998
4.05314
4.0552
4.05625
4.05639
4.05576
4.05452
4.0528
4.05075
4.04846
4.04602
4.04349
4.04095
4.0385
4.03626
4.03433
4.03275
4.03155
4.0307
4.03019
4.03004
4.03038
3.97964
3.9715
3.96624
3.9645
3.96456
3.9673
3.97236
3.97933
3.98772
3.99689
4.00635
4.01565
4.02439
4.03228
4.03913
4.04483
4.04931
4.05261
4.0548
4.05596
4.05621
4.05567
4.05449
4.05282
4.05079
4.04852
4.04609
4.04356
4.04099
4.03848
4.03616
4.03415
4.03252
4.03128
4.03043
4.02994
4.02985
4.03029
3.97732
3.96818
3.96188
3.96046
3.96094
3.9642
3.96975
3.97714
3.98588
3.99534
4.00503
4.01451
4.02342
4.03146
4.03845
4.04428
4.04888
4.05229
4.05457
4.05582
4.05616
4.0557
4.05457
4.05291
4.05086
4.04857
4.04611
4.04356
4.04095
4.03838
4.03598
4.03389
4.03219
4.03093
4.03008
4.02962
4.02962
4.03015
3.97358
3.96369
3.95628
3.95543
3.95652
3.9605
3.96672
3.9747
3.98395
3.99381
4.00381
4.01354
4.02265
4.03087
4.03801
4.04397
4.04869
4.05218
4.05453
4.05584
4.05624
4.05583
4.05473
4.05306
4.05097
4.04859
4.04607
4.04347
4.04082
4.03819
4.03572
4.03355
4.03179
4.0305
4.02966
4.02924
4.02932
4.02994
3.96785
3.95772
3.94919
3.9493
3.95124
3.95616
3.96325
3.97199
3.98188
3.99228
4.00269
4.01273
4.02209
4.03051
4.03781
4.0439
4.04873
4.05231
4.05471
4.05604
4.05645
4.05606
4.05498
4.05327
4.0511
4.04861
4.04598
4.04329
4.04058
4.03791
4.03538
4.03314
4.03133
4.03
4.02917
4.02879
4.02896
4.02966
3.95919
3.94985
3.94026
3.94191
3.94502
3.95115
3.95929
3.96896
3.97965
3.99073
4.00166
4.0121
4.02175
4.03038
4.03785
4.04408
4.04902
4.05268
4.0551
4.05642
4.0568
4.05638
4.05527
4.05352
4.05124
4.04861
4.04583
4.04303
4.04026
4.03754
4.03497
4.03267
4.0308
4.02944
4.02861
4.02828
4.02853
4.0293
3.94593
3.93948
3.92904
3.93309
3.93779
3.94541
3.95482
3.9656
3.97724
3.98912
4.00071
4.01163
4.02164
4.03052
4.03815
4.0445
4.04954
4.05327
4.05572
4.05699
4.05729
4.05678
4.05559
4.05377
4.05138
4.0486
4.04564
4.0427
4.03984
4.03708
4.03447
4.03214
4.03022
4.02882
4.02798
4.02768
4.02801
4.02886
3.92514
3.9259
3.91509
3.92268
3.92951
3.93895
3.94984
3.96189
3.97462
3.98744
3.9998
4.01134
4.02178
4.03095
4.03876
4.04521
4.05031
4.05408
4.05653
4.05775
4.05792
4.05725
4.05593
4.054
4.0515
4.04857
4.04543
4.04231
4.03934
4.03653
4.03389
4.03153
4.02958
4.02814
4.02728
4.02701
4.0274
4.02832
3.89171
3.90842
3.89818
3.91062
3.92025
3.93183
3.9444
3.95787
3.97183
3.9857
3.99894
4.01119
4.02217
4.0317
4.03971
4.04623
4.05134
4.0551
4.05752
4.05867
4.05869
4.05782
4.05629
4.0542
4.05158
4.0485
4.04518
4.04189
4.03878
4.03589
4.03323
4.03085
4.02886
4.02739
4.02651
4.02625
4.0267
4.02767
3.83528
3.88464
3.87829
3.89691
3.91012
3.92414
3.93857
3.9536
3.9689
3.98393
3.99814
4.01118
4.02278
4.03275
4.04101
4.0476
4.05266
4.05633
4.05866
4.05971
4.05957
4.05847
4.05668
4.05437
4.05159
4.04838
4.04491
4.04144
4.03817
4.03519
4.03249
4.03008
4.02807
4.02656
4.02565
4.02539
4.02589
4.02693
3.74017
3.8432
3.85558
3.88137
3.89901
3.91575
3.93225
3.94903
3.96585
3.98217
3.99747
4.01136
4.02362
4.03405
4.04258
4.04928
4.05428
4.05779
4.05995
4.06084
4.06053
4.0592
4.05713
4.05456
4.05158
4.04822
4.0446
4.04097
4.03754
4.03444
4.03166
4.02923
4.02719
4.02564
4.02469
4.02443
4.02498
4.02606
1368.64
1373.41
1376.32
1378.2
1379.54
1380.49
1381.14
1381.51
1381.57
1381.3
1380.69
1379.71
1378.38
1376.71
1374.73
1372.46
1369.97
1367.31
1364.56
1361.81
1359.18
1356.79
1354.8
1353.39
1352.74
1353.07
1354.63
1357.66
1362.43
1369.25
1378.4
1390.19
1404.85
1422.52
1443.19
1466.6
1492.15
1518.81
1545.05
1568.55
1585.8
1591.14
1575.63
1521.61
1412.07
1000.81
1356.84
1361.32
1363.87
1365.41
1366.46
1367.16
1367.56
1367.68
1367.49
1366.97
1366.09
1364.85
1363.23
1361.26
1358.96
1356.34
1353.48
1350.41
1347.22
1343.99
1340.83
1337.86
1335.24
1333.11
1331.67
1331.1
1331.61
1333.4
1336.67
1341.65
1348.56
1357.65
1369.07
1382.9
1399.01
1417.06
1436.29
1455.53
1472.92
1485.71
1489.66
1478.08
1440.08
1355.91
1204.75
992.731
1344.19
1348.23
1350.29
1351.44
1352.16
1352.56
1352.69
1352.55
1352.11
1351.34
1350.21
1348.7
1346.82
1344.56
1341.94
1338.99
1335.74
1332.26
1328.61
1324.88
1321.16
1317.58
1314.27
1311.38
1309.09
1307.59
1307.04
1307.58
1309.34
1312.45
1317.06
1323.34
1331.43
1341.35
1352.94
1365.81
1379.18
1391.8
1401.83
1406.59
1402.2
1383.31
1342.79
1272.06
1166.63
1063.52
1330.9
1334.37
1335.88
1336.55
1336.88
1336.95
1336.77
1336.35
1335.63
1334.59
1333.19
1331.42
1329.26
1326.71
1323.77
1320.46
1316.82
1312.9
1308.76
1304.48
1300.16
1295.91
1291.86
1288.16
1284.99
1282.53
1280.95
1280.32
1280.63
1281.91
1284.21
1287.66
1292.38
1298.42
1305.66
1313.73
1321.89
1329
1333.38
1332.72
1323.92
1303.06
1265.75
1208.05
1126.78
1034.75
1317.21
1320.01
1320.9
1321.03
1320.9
1320.57
1320.04
1319.29
1318.27
1316.93
1315.25
1313.19
1310.73
1307.86
1304.58
1300.89
1296.83
1292.43
1287.76
1282.89
1277.91
1272.93
1268.09
1263.52
1259.41
1256
1253.47
1251.82
1250.86
1250.44
1250.49
1251.12
1252.5
1254.77
1257.91
1261.67
1265.42
1268.17
1268.54
1264.69
1254.2
1234.11
1201.25
1152.94
1087.46
1012
1303.38
1305.41
1305.65
1305.14
1304.47
1303.7
1302.76
1301.62
1300.24
1298.57
1296.56
1294.18
1291.38
1288.16
1284.49
1280.38
1275.85
1270.94
1265.68
1260.16
1254.48
1248.73
1243.03
1237.51
1232.41
1228.05
1224.75
1222.37
1220.47
1218.6
1216.56
1214.43
1212.5
1211.1
1210.45
1210.47
1210.66
1210.2
1208.08
1202.92
1192.97
1175.99
1149.58
1112.03
1063.34
1008.97
1289.67
1290.78
1290.36
1289.19
1287.95
1286.64
1285.21
1283.61
1281.8
1279.72
1277.32
1274.56
1271.38
1267.76
1263.67
1259.11
1254.07
1248.59
1242.71
1236.5
1230.06
1223.5
1216.91
1210.37
1204.13
1198.79
1194.94
1192.34
1190.04
1187.14
1183.22
1178.35
1173.06
1167.99
1163.77
1160.63
1158.1
1155.49
1152.21
1147.39
1139.86
1127.83
1109.25
1082.78
1048.73
1010.57
1276.39
1276.5
1275.48
1273.67
1271.76
1269.8
1267.75
1265.57
1263.23
1260.66
1257.8
1254.6
1251
1246.94
1242.39
1237.32
1231.74
1225.66
1219.09
1212.11
1204.84
1197.38
1189.75
1181.88
1173.98
1167.22
1163.18
1161.32
1159.67
1156.43
1150.82
1142.99
1133.86
1124.66
1116.73
1110.92
1106.44
1102.34
1098.83
1095.69
1092.49
1087.42
1077.9
1062.3
1040.74
1015.76
1264.21
1263.32
1261.72
1259.23
1256.44
1253.57
1250.66
1247.7
1244.65
1241.45
1238.02
1234.27
1230.14
1225.53
1220.38
1214.67
1208.38
1201.48
1193.95
1185.89
1177.5
1168.93
1160.04
1150.23
1139.32
1129.92
1126.48
1127.71
1129.07
1126.85
1119.89
1108.78
1095.39
1081.93
1070.6
1062.79
1056.6
1050.3
1045.34
1043.44
1045.73
1049.96
1051.51
1047.49
1037.97
1025.44
1253.53
1252.03
1250.09
1246.5
1242.09
1237.62
1233.29
1229.11
1225.01
1220.87
1216.59
1212.07
1207.19
1201.81
1195.83
1189.22
1181.97
1173.97
1165.2
1156.02
1146.92
1138.25
1129.65
1119.47
1106.43
1092.6
1089.46
1099.08
1107.98
1108.78
1101.94
1080.11
1038.1
985.032
940.389
941.911
954.115
980.334
1026.86
1020.57
1020.67
1026.73
1033.45
1036.95
1037.37
1036.82
1245.22
1245.45
1242.54
1235.44
1227.91
1221.25
1215.36
1210.01
1204.97
1200.08
1195.18
1190.21
1185.04
1179.5
1173.5
1167.09
1160.35
1152.86
1142.23
1124.78
1096.83
1059.84
1015.27
945.691
802.169
585.325
542.668
599.978
700.007
730.474
665.727
506.671
341.848
224.071
158.467
180.985
218.144
214.441
233.142
327.895
527.389
771.849
966.056
1066.75
1062.31
1060.47
1248.92
1236.93
1175.65
1091.35
1042.58
1018.13
1004.94
997.545
992.23
986.475
977.83
965.956
949.324
924.621
888.837
842.108
785.707
717.865
617.926
505.824
393.028
297.332
218.661
133.903
32.0441
-3.16693
-3.0262
-2.913
7.79426
7.89575
-3.00273
-3.02585
-3.1644
-3.37013
-3.56077
-3.67116
-3.78562
-4.0047
-4.33369
-4.62579
-0.529201
38.5326
132.974
295.774
531.132
796.129
822.941
593.133
363.858
220.973
169.588
149.912
141.073
137.18
135.059
132.432
127.259
119.472
108.315
92.1684
70.7147
46.5668
22.5862
-1.59353
-2.46995
-2.4284
-2.46656
-2.51055
-2.55086
-2.6777
-2.85296
-2.75691
-2.68557
-2.65345
-2.71751
-2.94016
-3.00982
-3.00778
-3.04873
-3.12304
-3.20566
-3.28431
-3.36251
-3.43889
-3.50479
-3.57587
-3.75698
-4.2387
-4.85816
-5.10024
-3.06243
41.974
-1.80446
-1.30104
-1.60892
-1.83956
-1.82141
-1.81112
-1.82601
-1.85451
-1.89013
-1.93062
-1.9741
-2.01868
-2.06422
-2.11286
-2.16492
-2.2171
-2.25541
-2.19276
-2.14707
-2.15341
-2.19444
-2.25584
-2.33372
-2.4379
-2.57125
-2.69887
-2.74105
-2.76835
-2.82595
-2.94005
-3.03421
-3.08606
-3.15
-3.23237
-3.32409
-3.41965
-3.52171
-3.63617
-3.75022
-3.81088
-3.85016
-3.94676
-4.12125
-4.23206
-4.34928
-4.70136
-1.96862
-1.82574
-1.83364
-1.81912
-1.78493
-1.7577
-1.74296
-1.7384
-1.74226
-1.75408
-1.77313
-1.79906
-1.83245
-1.87459
-1.92714
-1.99252
-2.07436
-2.16573
-2.20674
-2.24557
-2.29696
-2.36196
-2.43986
-2.53054
-2.63106
-2.72882
-2.79121
-2.84451
-2.90987
-2.99377
-3.07686
-3.14728
-3.22299
-3.30935
-3.40289
-3.50052
-3.60319
-3.71234
-3.82285
-3.92886
-4.03096
-4.1543
-4.30229
-4.42205
-4.49069
-4.55183
-1.91186
-1.86096
-1.83019
-1.8155
-1.80041
-1.78847
-1.78402
-1.78774
-1.799
-1.81739
-1.8423
-1.87343
-1.91103
-1.95559
-2.00749
-2.06659
-2.13204
-2.19929
-2.25161
-2.30107
-2.35753
-2.42357
-2.49915
-2.58304
-2.67092
-2.75399
-2.82468
-2.89155
-2.96397
-3.04426
-3.12451
-3.20151
-3.2818
-3.36888
-3.46197
-3.5597
-3.66214
-3.76942
-3.88048
-3.99533
-4.11689
-4.25309
-4.40095
-4.53917
-4.65972
-4.78495
-1.87652
-1.84946
-1.83201
-1.81906
-1.81049
-1.80555
-1.80652
-1.81449
-1.82935
-1.85069
-1.87814
-1.91145
-1.95055
-1.99547
-2.04604
-2.10157
-2.1604
-2.21959
-2.27561
-2.33233
-2.39397
-2.46247
-2.53782
-2.61882
-2.70239
-2.78368
-2.85985
-2.93416
-3.01095
-3.0916
-3.17305
-3.25426
-3.33825
-3.42725
-3.52145
-3.62041
-3.72398
-3.83202
-3.94409
-4.06019
-4.18238
-4.31381
-4.45273
-4.59137
-4.72841
-4.8705
-1.87042
-1.8535
-1.83977
-1.82891
-1.82281
-1.82115
-1.82498
-1.8351
-1.85154
-1.87408
-1.90241
-1.93631
-1.97561
-2.02019
-2.06978
-2.12381
-2.18122
-2.24044
-2.30031
-2.36213
-2.42792
-2.49875
-2.57457
-2.65437
-2.73623
-2.81751
-2.89669
-2.97497
-3.05444
-3.13617
-3.2193
-3.30379
-3.39116
-3.48277
-3.57902
-3.67977
-3.78481
-3.89394
-4.00687
-4.12373
-4.24571
-4.37423
-4.50882
-4.64631
-4.78547
-4.92752
-1.87951
-1.86261
-1.85102
-1.84234
-1.83845
-1.83944
-1.8457
-1.85771
-1.87555
-1.89907
-1.92807
-1.96234
-2.00173
-2.04606
-2.09509
-2.1484
-2.20535
-2.26518
-2.32733
-2.39221
-2.46063
-2.53306
-2.60935
-2.68869
-2.76978
-2.85108
-2.93168
-3.01207
-3.09336
-3.17629
-3.26109
-3.34817
-3.43842
-3.53268
-3.63123
-3.73393
-3.84051
-3.95073
-4.0645
-4.18214
-4.30455
-4.43277
-4.56675
-4.70504
-4.84623
-4.98974
-1.88961
-1.87422
-1.86476
-1.8584
-1.85669
-1.85994
-1.86826
-1.8819
-1.90091
-1.92523
-1.95471
-1.98921
-2.02859
-2.0727
-2.12135
-2.17424
-2.23099
-2.29117
-2.35448
-2.42098
-2.49087
-2.56423
-2.64077
-2.71982
-2.80043
-2.88163
-2.96285
-3.0443
-3.12669
-3.21077
-3.29712
-3.38634
-3.47908
-3.57582
-3.67665
-3.78131
-3.88947
-4.00091
-4.11573
-4.23446
-4.35806
-4.48747
-4.62288
-4.76347
-4.90762
-5.05354
-1.90002
-1.88729
-1.88012
-1.87609
-1.87641
-1.88152
-1.89147
-1.90637
-1.92627
-1.95114
-1.9809
-2.01545
-2.0547
-2.09855
-2.14686
-2.19943
-2.25601
-2.31634
-2.38019
-2.44746
-2.51806
-2.5918
-2.66831
-2.74696
-2.82703
-2.90786
-2.98912
-3.07099
-3.15408
-3.23912
-3.32686
-3.41793
-3.51286
-3.61188
-3.71487
-3.82143
-3.93121
-4.04411
-4.16045
-4.28104
-4.40698
-4.53921
-4.67797
-4.82254
-4.97103
-5.12096
-1.91052
-1.90125
-1.89634
-1.89443
-1.89654
-1.90315
-1.91434
-1.93018
-1.95071
-1.97594
-2.00581
-2.0403
-2.07934
-2.12287
-2.17081
-2.22303
-2.27937
-2.33962
-2.40358
-2.47106
-2.5418
-2.61546
-2.69159
-2.76962
-2.84896
-2.92917
-3.01009
-3.09199
-3.17545
-3.26128
-3.35025
-3.443
-3.53992
-3.64103
-3.74603
-3.85446
-3.96598
-4.08072
-4.19931
-4.32288
-4.45267
-4.5896
-4.73379
-4.88434
-5.03909
-5.19516
-1.92112
-1.91553
-1.91257
-1.91247
-1.91607
-1.92388
-1.93601
-1.95254
-1.9735
-1.99892
-2.0288
-2.06312
-2.10187
-2.14503
-2.19255
-2.24436
-2.30033
-2.36028
-2.42401
-2.49127
-2.56171
-2.6349
-2.71034
-2.78751
-2.86592
-2.9453
-3.02563
-3.1073
-3.19095
-3.27742
-3.36752
-3.46182
-3.56057
-3.66362
-3.77053
-3.88083
-3.99435
-4.1115
-4.23332
-4.36123
-4.4966
-4.64023
-4.79196
-4.95063
-5.11383
-5.27841
-1.93164
-1.92937
-1.92795
-1.92932
-1.93415
-1.94291
-1.95576
-1.97278
-1.99401
-2.01951
-2.0493
-2.08338
-2.12178
-2.16449
-2.21153
-2.26284
-2.31831
-2.37777
-2.44101
-2.50773
-2.57753
-2.64993
-2.72443
-2.80052
-2.87784
-2.95623
-3.03582
-3.11711
-3.20083
-3.28786
-3.37899
-3.47472
-3.57516
-3.68002
-3.78878
-3.90105
-4.01693
-4.13722
-4.26338
-4.39711
-4.53981
-4.69205
-4.85335
-5.02227
-5.19622
-5.37185
-1.94152
-1.94191
-1.94167
-1.94425
-1.95008
-1.95959
-1.973
-1.99038
-2.01178
-2.03727
-2.06689
-2.10067
-2.13866
-2.18088
-2.22736
-2.27807
-2.33292
-2.39173
-2.45426
-2.52019
-2.58908
-2.66046
-2.7338
-2.80867
-2.88477
-2.96206
-3.04083
-3.12166
-3.20538
-3.2929
-3.38496
-3.48199
-3.58397
-3.69051
-3.80109
-3.91551
-4.0342
-4.15843
-4.29006
-4.43102
-4.58263
-4.74516
-4.9178
-5.09896
-5.286
-5.47539
-1.95005
-1.95245
-1.95311
-1.95671
-1.96336
-1.97351
-1.98737
-2.00501
-2.02651
-2.05192
-2.08132
-2.11475
-2.15228
-2.19395
-2.2398
-2.28981
-2.3439
-2.4019
-2.46354
-2.52847
-2.59627
-2.66643
-2.73847
-2.812
-2.88681
-2.96296
-3.04086
-3.12119
-3.20485
-3.29277
-3.38565
-3.48383
-3.58718
-3.69527
-3.80768
-3.92444
-4.04643
-4.17538
-4.31351
-4.46288
-4.62463
-4.79874
-4.9842
-5.17947
-5.382
-5.58813
-1.95647
-1.96035
-1.96178
-1.96628
-1.97367
-1.98438
-1.99862
-2.01647
-2.038
-2.06328
-2.09239
-2.12542
-2.16243
-2.20349
-2.24863
-2.29784
-2.35105
-2.40808
-2.46867
-2.53246
-2.599
-2.66782
-2.73846
-2.81058
-2.88406
-2.95905
-3.03606
-3.11586
-3.19941
-3.28762
-3.38117
-3.4803
-3.58483
-3.69434
-3.80858
-3.92792
-4.05366
-4.188
-4.33344
-4.49203
-4.66472
-4.85129
-5.05077
-5.26196
-5.48265
-5.70894
-1.9602
-1.96513
-1.96733
-1.97268
-1.98077
-1.99199
-2.00657
-2.02457
-2.04607
-2.07116
-2.09993
-2.13249
-2.16892
-2.20929
-2.25364
-2.30196
-2.35418
-2.41014
-2.46955
-2.53207
-2.59725
-2.66463
-2.7338
-2.80448
-2.87662
-2.95045
-3.02656
-3.10581
-3.18916
-3.27753
-3.37154
-3.47139
-3.57687
-3.68765
-3.80372
-3.92581
-4.05568
-4.19588
-4.34909
-4.51729
-4.70127
-4.90081
-5.1153
-5.34432
-5.58617
-5.8366
-1.96084
-1.96648
-1.96955
-1.97571
-1.98448
-1.99619
-2.01106
-2.02916
-2.05058
-2.07542
-2.1038
-2.13584
-2.17162
-2.21124
-2.25472
-2.30207
-2.35322
-2.40799
-2.46613
-2.52728
-2.59102
-2.65692
-2.72459
-2.79381
-2.8646
-2.93728
-3.01248
-3.0911
-3.17414
-3.26248
-3.3567
-3.45698
-3.56314
-3.67501
-3.79285
-3.91778
-4.05197
-4.19821
-4.35925
-4.53698
-4.73216
-4.94486
-5.17531
-5.42416
-5.69044
-5.96946
-1.95831
-1.96429
-1.96831
-1.97528
-1.98471
-1.99689
-2.01201
-2.03016
-2.05145
-2.07601
-2.10396
-2.13542
-2.17051
-2.20931
-2.25187
-2.29818
-2.34817
-2.40169
-2.45847
-2.51819
-2.58043
-2.64479
-2.71094
-2.7787
-2.84814
-2.91964
-2.99389
-3.0718
-3.15435
-3.2424
-3.33652
-3.43688
-3.5434
-3.65612
-3.77559
-3.90331
-4.04172
-4.1938
-4.36226
-4.54896
-4.75483
-4.98063
-5.22781
-5.49845
-5.79238
-6.10462
-1.95264
-1.95859
-1.96363
-1.97142
-1.98151
-1.99412
-2.00944
-2.02761
-2.04874
-2.07298
-2.10046
-2.13131
-2.16566
-2.20359
-2.24516
-2.29037
-2.33914
-2.39132
-2.44668
-2.5049
-2.56558
-2.62837
-2.69298
-2.75926
-2.82734
-2.89764
-2.97085
-3.0479
-3.12974
-3.2172
-3.31084
-3.41088
-3.51738
-3.63061
-3.75144
-3.88166
-4.02391
-4.18117
-4.35615
-4.55074
-4.76638
-5.00485
-5.26914
-5.56295
-5.88709
-6.23669
-1.9438
-1.94946
-1.95567
-1.96427
-1.97499
-1.98799
-2.00348
-2.02161
-2.04255
-2.06644
-2.09342
-2.12362
-2.15718
-2.19419
-2.23471
-2.27874
-2.32622
-2.37701
-2.43088
-2.48753
-2.54661
-2.60779
-2.67081
-2.73559
-2.80227
-2.8713
-2.94337
-3.01937
-3.10024
-3.18676
-3.27951
-3.37877
-3.48481
-3.59812
-3.71986
-3.85203
-3.99732
-4.15869
-4.33876
-4.5397
-4.76367
-5.01377
-5.29469
-5.61185
-5.9673
-6.35724
-1.9318
-1.93722
-1.94458
-1.95402
-1.9653
-1.97864
-1.99425
-2.01232
-2.03302
-2.05651
-2.08295
-2.11246
-2.14518
-2.18122
-2.22062
-2.26341
-2.30953
-2.35885
-2.41116
-2.46619
-2.52361
-2.58313
-2.64453
-2.70775
-2.77297
-2.84062
-2.9114
-2.98614
-3.06573
-3.15093
-3.24234
-3.34035
-3.44541
-3.55828
-3.68028
-3.81359
-3.96081
-4.12475
-4.30806
-4.51327
-4.74348
-5.00322
-5.29883
-5.63753
-6.02314
-6.45472
-1.91664
-1.92235
-1.93061
-1.9408
-1.95259
-1.96621
-1.98189
-1.99984
-2.02026
-2.04331
-2.06915
-2.09792
-2.12975
-2.16475
-2.20298
-2.24447
-2.28916
-2.33695
-2.38764
-2.44098
-2.49668
-2.55448
-2.6142
-2.6758
-2.73947
-2.80564
-2.87495
-2.94818
-3.02616
-3.10962
-3.1992
-3.29541
-3.3989
-3.51065
-3.63216
-3.76554
-3.91327
-4.07795
-4.26225
-4.46918
-4.70279
-4.96894
-5.27508
-5.63063
-6.04166
-6.51224
-1.89873
-1.90488
-1.91391
-1.92476
-1.93698
-1.95081
-1.96651
-1.9843
-2.00439
-2.02695
-2.05215
-2.08012
-2.111
-2.14491
-2.18191
-2.22203
-2.26524
-2.31143
-2.36044
-2.41204
-2.46597
-2.522
-2.57997
-2.63987
-2.70189
-2.76642
-2.83406
-2.90552
-2.98155
-3.06286
-3.1501
-3.24393
-3.34516
-3.45498
-3.57497
-3.70714
-3.85372
-4.01709
-4.19991
-4.40558
-4.63901
-4.90717
-5.21655
-5.58078
-6.00671
-6.50514
-1.87836
-1.88494
-1.89463
-1.90604
-1.91861
-1.9326
-1.94826
-1.96585
-1.98556
-2.00758
-2.03208
-2.0592
-2.08909
-2.12186
-2.15757
-2.19628
-2.23795
-2.2825
-2.32978
-2.37957
-2.43167
-2.48585
-2.54199
-2.6001
-2.66033
-2.72307
-2.78883
-2.85825
-2.93199
-3.01073
-3.09514
-3.18598
-3.28424
-3.3912
-3.5085
-3.63798
-3.78158
-3.94141
-4.12007
-4.32121
-4.55002
-4.81346
-5.11983
-5.48002
-5.90383
-6.40586
-1.8558
-1.86274
-1.87298
-1.88484
-1.89768
-1.91175
-1.92732
-1.94465
-1.96393
-1.98537
-2.00913
-2.03537
-2.06422
-2.0958
-2.13019
-2.16744
-2.20753
-2.25038
-2.29587
-2.34381
-2.39401
-2.44627
-2.50049
-2.55667
-2.61497
-2.67572
-2.73938
-2.80648
-2.87761
-2.9534
-3.0345
-3.12177
-3.21629
-3.31945
-3.43282
-3.55805
-3.69678
-3.85084
-4.02268
-4.21596
-4.43578
-4.6886
-4.98219
-5.32574
-5.72805
-6.20185
-1.83128
-1.83851
-1.84917
-1.86137
-1.87439
-1.88847
-1.90389
-1.92091
-1.93973
-1.96055
-1.98354
-2.00885
-2.03663
-2.06699
-2.10002
-2.13576
-2.17422
-2.21534
-2.25899
-2.30501
-2.35323
-2.40349
-2.45567
-2.5098
-2.56601
-2.62457
-2.68588
-2.75039
-2.8186
-2.89107
-2.96844
-3.05159
-3.14165
-3.24004
-3.34825
-3.46771
-3.59976
-3.74594
-3.90849
-4.09084
-4.29761
-4.53434
-4.80741
-5.12415
-5.49134
-5.91734
-1.80503
-1.81245
-1.82343
-1.83586
-1.84897
-1.86298
-1.8782
-1.89486
-1.91318
-1.93335
-1.95553
-1.97989
-2.00656
-2.03567
-2.0673
-2.10151
-2.13831
-2.17763
-2.21939
-2.26344
-2.30961
-2.35776
-2.40779
-2.45972
-2.51365
-2.56982
-2.62855
-2.69021
-2.75521
-2.82403
-2.89728
-2.97581
-3.06076
-3.15349
-3.25539
-3.36767
-3.49139
-3.62782
-3.77891
-3.94767
-4.13797
-4.3542
-4.60121
-4.88453
-5.20932
-5.58175
-1.77724
-1.78478
-1.79595
-1.80851
-1.82161
-1.8355
-1.85045
-1.86672
-1.88449
-1.90397
-1.92533
-1.94871
-1.97425
-2.00208
-2.03228
-2.06492
-2.10001
-2.1375
-2.17731
-2.21931
-2.26336
-2.30931
-2.35708
-2.40666
-2.45814
-2.51171
-2.56763
-2.62619
-2.68772
-2.75262
-2.82142
-2.89492
-2.9742
-3.06051
-3.1551
-3.25899
-3.37299
-3.4981
-3.63594
-3.78897
-3.96017
-4.15268
-4.36984
-4.61552
-4.89353
-5.20907
-1.74808
-1.75566
-1.76691
-1.77949
-1.79251
-1.8062
-1.82084
-1.83666
-1.85386
-1.87263
-1.89313
-1.9155
-1.93989
-1.96642
-1.99516
-2.0262
-2.05954
-2.09515
-2.13297
-2.17287
-2.21471
-2.25837
-2.30376
-2.35085
-2.39972
-2.4505
-2.5034
-2.55864
-2.61647
-2.67721
-2.74131
-2.80946
-2.88262
-2.96193
-3.04844
-3.14298
-3.24617
-3.35877
-3.48203
-3.61779
-3.76813
-3.93495
-4.12018
-4.32612
-4.55524
-4.81258
-1.71768
-1.72523
-1.73645
-1.74896
-1.76181
-1.77524
-1.78951
-1.80485
-1.82145
-1.83947
-1.85909
-1.88045
-1.90366
-1.92886
-1.95612
-1.98552
-2.01708
-2.05078
-2.08655
-2.12429
-2.16387
-2.20517
-2.24807
-2.29256
-2.33866
-2.38648
-2.43616
-2.48789
-2.54184
-2.59824
-2.65744
-2.72002
-2.78678
-2.85867
-2.93657
-3.02111
-3.11275
-3.21203
-3.31985
-3.43744
-3.56601
-3.70633
-3.85899
-4.02477
-4.20452
-4.40152
-1.68615
-1.6936
-1.7047
-1.71704
-1.72965
-1.74276
-1.75662
-1.77144
-1.7874
-1.80466
-1.82338
-1.84369
-1.86572
-1.88956
-1.91532
-1.94306
-1.97281
-2.00456
-2.03825
-2.0738
-2.11106
-2.14992
-2.19027
-2.23204
-2.27526
-2.31997
-2.36629
-2.41435
-2.46425
-2.51617
-2.57035
-2.62723
-2.68743
-2.75171
-2.82072
-2.89494
-2.97466
-3.06022
-3.1522
-3.25131
-3.35797
-3.47204
-3.59294
-3.72006
-3.85273
-3.99165
-1.6536
-1.66088
-1.67177
-1.68385
-1.69616
-1.70889
-1.72229
-1.73656
-1.75185
-1.76834
-1.78614
-1.80539
-1.82621
-1.84869
-1.87293
-1.899
-1.92692
-1.9567
-1.98828
-2.02159
-2.0565
-2.09287
-2.1306
-2.1696
-2.20983
-2.25133
-2.29417
-2.33843
-2.38418
-2.43152
-2.48061
-2.53175
-2.58537
-2.64201
-2.70212
-2.76599
-2.83378
-2.90566
-2.98191
-3.06278
-3.14811
-3.23705
-3.32815
-3.41969
-3.50988
-3.59674
-1.62011
-1.62718
-1.63777
-1.64951
-1.66145
-1.67376
-1.68667
-1.70035
-1.71496
-1.73064
-1.74752
-1.7657
-1.7853
-1.80642
-1.82913
-1.85351
-1.87959
-1.90738
-1.93684
-1.96789
-2.00041
-2.03428
-2.06936
-2.10552
-2.14273
-2.18095
-2.22023
-2.26061
-2.30213
-2.34484
-2.38883
-2.43425
-2.48137
-2.5305
-2.5819
-2.63569
-2.69188
-2.75049
-2.81157
-2.87499
-2.94017
-3.00581
-3.06987
-3.12996
-3.18357
-3.22659
-1.58577
-1.59258
-1.6028
-1.61414
-1.62566
-1.6375
-1.64989
-1.66296
-1.67687
-1.69174
-1.70767
-1.72478
-1.74317
-1.76291
-1.7841
-1.80679
-1.83103
-1.85682
-1.88415
-1.91293
-1.94307
-1.97441
-2.00682
-2.04015
-2.0743
-2.10922
-2.1449
-2.18136
-2.21863
-2.25671
-2.29561
-2.3354
-2.37618
-2.41807
-2.46113
-2.50531
-2.5505
-2.59657
-2.64339
-2.69058
-2.73728
-2.78193
-2.82221
-2.85543
-2.87885
-2.88711
-1.55067
-1.55719
-1.56699
-1.57787
-1.58892
-1.60027
-1.61209
-1.62454
-1.63773
-1.65177
-1.66677
-1.68281
-1.69998
-1.71836
-1.73803
-1.75904
-1.78144
-1.80525
-1.83045
-1.85697
-1.88472
-1.91354
-1.94329
-1.97378
-2.0049
-2.03653
-2.06863
-2.1012
-2.13423
-2.16771
-2.20161
-2.2359
-2.27057
-2.30555
-2.34074
-2.37595
-2.41094
-2.44546
-2.47921
-2.51167
-2.54183
-2.56807
-2.58802
-2.59901
-2.59848
-2.58062
-1.5149
-1.5211
-1.53043