/*--------------------------------*- C++ -*----------------------------------*\
  =========                 |
  \\      /  F ield         | OpenFOAM: The Open Source CFD Toolbox
   \\    /   O peration     | Website:  https://openfoam.org
    \\  /    A nd           | Version:  7
     \\/     M anipulation  |
\*---------------------------------------------------------------------------*/
FoamFile
{
    version     2.0;
    format      ascii;
    class       surfaceScalarField;
    location    "0.3";
    object      phi;
}
// * * * * * * * * * * * * * * * * * * * * * * * * * * * * * * * * * * * * * //

dimensions      [0 3 -1 0 0 0 0];

internalField   nonuniform List<scalar> 
17936
(
-1.85042e-06
1.85042e-06
-1.90155e-06
5.11248e-08
-8.39256e-07
-1.06229e-06
6.10005e-07
-1.44926e-06
2.18269e-06
-1.57269e-06
3.74136e-06
-1.55867e-06
5.23143e-06
-1.49007e-06
6.63968e-06
-1.40825e-06
7.9705e-06
-1.33082e-06
9.23557e-06
-1.26507e-06
1.04488e-05
-1.21326e-06
1.16239e-05
-1.17505e-06
1.27727e-05
-1.14883e-06
1.39053e-05
-1.13263e-06
1.50297e-05
-1.12435e-06
1.61517e-05
-1.12201e-06
1.72754e-05
-1.1237e-06
1.8403e-05
-1.12763e-06
1.95351e-05
-1.13203e-06
2.06702e-05
-1.13514e-06
2.18053e-05
-1.13514e-06
2.29354e-05
-1.13004e-06
2.40531e-05
-1.11771e-06
2.51489e-05
-1.09576e-06
2.62104e-05
-1.06151e-06
2.72223e-05
-1.01196e-06
2.8166e-05
-9.43725e-07
2.9019e-05
-8.52925e-07
2.9754e-05
-7.35017e-07
3.03377e-05
-5.83753e-07
3.07282e-05
-3.9045e-07
3.08538e-05
-1.25565e-07
3.05994e-05
2.54314e-07
2.98564e-05
7.42996e-07
2.852e-05
1.33643e-06
2.64636e-05
2.05641e-06
2.35415e-05
2.92213e-06
1.96272e-05
3.91423e-06
1.46921e-05
4.93516e-06
8.91829e-06
5.77379e-06
2.78843e-06
6.12986e-06
-3.28716e-06
6.07559e-06
-9.11584e-06
5.82867e-06
-1.24174e-05
3.30159e-06
-9.59932e-06
-2.81811e-06
-9.59932e-06
-1.0548e-06
2.90522e-06
-6.0344e-07
-4.00231e-07
4.38136e-07
-2.10387e-06
1.79763e-06
-2.80876e-06
3.27223e-06
-3.04729e-06
4.75728e-06
-3.04372e-06
6.20317e-06
-2.93596e-06
7.59152e-06
-2.7966e-06
8.92124e-06
-2.66055e-06
1.01995e-05
-2.54335e-06
1.14366e-05
-2.45037e-06
1.26432e-05
-2.38164e-06
1.3829e-05
-2.33464e-06
1.50023e-05
-2.30587e-06
1.61694e-05
-2.29151e-06
1.73352e-05
-2.28783e-06
1.85028e-05
-2.29126e-06
1.96735e-05
-2.29836e-06
2.08473e-05
-2.30577e-06
2.20222e-05
-2.3101e-06
2.31949e-05
-2.30781e-06
2.436e-05
-2.29511e-06
2.55101e-05
-2.26786e-06
2.66358e-05
-2.22141e-06
2.77249e-05
-2.15061e-06
2.87625e-05
-2.04962e-06
2.97307e-05
-1.91187e-06
3.06076e-05
-1.72985e-06
3.13674e-05
-1.49479e-06
3.19794e-05
-1.19577e-06
3.24078e-05
-8.18877e-07
3.26251e-05
-3.42796e-07
3.26103e-05
2.69041e-07
3.23039e-05
1.04946e-06
3.1609e-05
2.0313e-06
3.04069e-05
3.25855e-06
2.85468e-05
4.78215e-06
2.58338e-05
6.6273e-06
2.20427e-05
8.72619e-06
1.70001e-05
1.08164e-05
1.07863e-05
1.23437e-05
3.98237e-06
1.28795e-05
-2.35137e-06
1.21624e-05
-6.3026e-06
7.25282e-06
-6.59121e-06
-2.52949e-06
-1.61905e-05
-2.97797e-07
3.20301e-06
2.8899e-07
-9.87018e-07
1.31989e-06
-3.13476e-06
2.61066e-06
-4.09952e-06
4.00521e-06
-4.44184e-06
5.42e-06
-4.45851e-06
6.81138e-06
-4.32734e-06
8.16117e-06
-4.14639e-06
9.46621e-06
-3.96558e-06
1.0731e-05
-3.8081e-06
1.19631e-05
-3.68252e-06
1.31711e-05
-3.5896e-06
1.43627e-05
-3.52629e-06
1.55447e-05
-3.48787e-06
1.67224e-05
-3.46915e-06
1.78994e-05
-3.46488e-06
1.90781e-05
-3.47e-06
2.02594e-05
-3.47964e-06
2.14426e-05
-3.48895e-06
2.26256e-05
-3.49306e-06
2.38046e-05
-3.48684e-06
2.49743e-05
-3.4648e-06
2.61273e-05
-3.42088e-06
2.72543e-05
-3.34837e-06
2.83434e-05
-3.23972e-06
2.93802e-05
-3.08645e-06
3.03473e-05
-2.87898e-06
3.12239e-05
-2.60644e-06
3.19854e-05
-2.25624e-06
3.26029e-05
-1.81335e-06
3.30433e-05
-1.25926e-06
3.3271e-05
-5.7052e-07
3.32526e-05
2.87517e-07
3.29444e-05
1.35763e-06
3.22879e-05
2.68777e-06
3.12121e-05
4.33441e-06
2.96341e-05
6.36012e-06
2.74525e-05
8.80891e-06
2.45339e-05
1.16448e-05
2.071e-05
1.46403e-05
1.5849e-05
1.72047e-05
1.01913e-05
1.85373e-05
4.61021e-06
1.77435e-05
-3.34489e-07
1.21975e-05
-2.70073e-06
-1.6325e-07
-1.88913e-05
2.75264e-07
2.92775e-06
9.65596e-07
-1.67735e-06
2.01677e-06
-4.18594e-06
3.26877e-06
-5.35152e-06
4.60691e-06
-5.77998e-06
5.96521e-06
-5.81681e-06
7.30822e-06
-5.67035e-06
8.62042e-06
-5.45859e-06
9.8984e-06
-5.24355e-06
1.11452e-05
-5.05488e-06
1.23666e-05
-4.90397e-06
1.35694e-05
-4.79239e-06
1.47599e-05
-4.71672e-06
1.59433e-05
-4.67133e-06
1.7124e-05
-4.64983e-06
1.83048e-05
-4.64573e-06
1.94875e-05
-4.65266e-06
2.06723e-05
-4.66443e-06
2.18582e-05
-4.6749e-06
2.30429e-05
-4.67778e-06
2.42226e-05
-4.66648e-06
2.53917e-05
-4.6339e-06
2.6543e-05
-4.57218e-06
2.76672e-05
-4.47262e-06
2.8753e-05
-4.32543e-06
2.97861e-05
-4.11961e-06
3.07499e-05
-3.84275e-06
3.16243e-05
-3.48082e-06
3.23858e-05
-3.01771e-06
3.30071e-05
-2.43464e-06
3.34569e-05
-1.70907e-06
3.37003e-05
-8.13974e-07
3.37009e-05
2.86906e-07
3.34186e-05
1.63996e-06
3.28073e-05
3.29903e-06
3.18168e-05
5.32491e-06
3.03963e-05
7.78062e-06
2.84952e-05
1.071e-05
2.60548e-05
1.40852e-05
2.29883e-05
1.77068e-05
1.91658e-05
2.10272e-05
1.4589e-05
2.31141e-05
9.70494e-06
2.26275e-05
4.90184e-06
1.70006e-05
1.01335e-06
3.72525e-06
-1.78779e-05
6.184e-07
2.30935e-06
1.46915e-06
-2.52809e-06
2.57101e-06
-5.2878e-06
3.81528e-06
-6.59579e-06
5.11953e-06
-7.08424e-06
6.43603e-06
-7.13331e-06
7.73928e-06
-6.97359e-06
9.0182e-06
-6.73751e-06
1.02706e-05
-6.49595e-06
1.14991e-05
-6.28335e-06
1.27084e-05
-6.11326e-06
1.39038e-05
-5.98782e-06
1.50904e-05
-5.90334e-06
1.62725e-05
-5.85342e-06
1.74533e-05
-5.83068e-06
1.86352e-05
-5.82753e-06
1.9819e-05
-5.83649e-06
2.10048e-05
-5.85021e-06
2.21912e-05
-5.86134e-06
2.33758e-05
-5.86232e-06
2.45544e-05
-5.84517e-06
2.57218e-05
-5.80126e-06
2.68707e-05
-5.72106e-06
2.7992e-05
-5.59396e-06
2.90746e-05
-5.40802e-06
3.01048e-05
-5.14985e-06
3.10665e-05
-4.80437e-06
3.19402e-05
-4.35457e-06
3.27036e-05
-3.78111e-06
3.33307e-05
-3.06172e-06
3.37919e-05
-2.17032e-06
3.40542e-05
-1.07628e-06
3.40822e-05
2.58961e-07
3.38386e-05
1.88351e-06
3.32848e-05
3.85287e-06
3.23822e-05
6.22748e-06
3.1097e-05
9.06582e-06
2.94026e-05
1.24045e-05
2.72753e-05
1.62125e-05
2.46766e-05
2.03056e-05
2.1516e-05
2.41877e-05
1.77061e-05
2.6924e-05
1.33526e-05
2.6981e-05
8.53218e-06
2.1821e-05
3.57828e-06
8.67915e-06
-1.42996e-05
8.04446e-07
1.5049e-06
1.82555e-06
-3.5492e-06
3.0031e-06
-6.46535e-06
4.26334e-06
-7.85603e-06
5.5524e-06
-8.3733e-06
6.84052e-06
-8.42143e-06
8.1129e-06
-8.24597e-06
9.36399e-06
-7.98861e-06
1.05938e-05
-7.72578e-06
1.18053e-05
-7.49484e-06
1.30026e-05
-7.31059e-06
1.41902e-05
-7.1754e-06
1.53721e-05
-7.0852e-06
1.65516e-05
-7.03293e-06
1.77313e-05
-7.01036e-06
1.89127e-05
-7.00896e-06
2.00965e-05
-7.02027e-06
2.12822e-05
-7.0359e-06
2.24682e-05
-7.04741e-06
2.3652e-05
-7.04605e-06
2.48294e-05
-7.02258e-06
2.5995e-05
-6.96691e-06
2.71419e-05
-6.86792e-06
2.82611e-05
-6.71317e-06
2.93418e-05
-6.4887e-06
3.03708e-05
-6.17882e-06
3.13323e-05
-5.76592e-06
3.22079e-05
-5.23018e-06
3.2976e-05
-4.54924e-06
3.3612e-05
-3.69765e-06
3.40878e-05
-2.64614e-06
3.43725e-05
-1.36093e-06
3.44327e-05
1.98704e-07
3.42345e-05
2.08167e-06
3.37443e-05
4.34308e-06
3.29312e-05
7.04056e-06
3.17708e-05
1.02262e-05
3.02474e-05
1.39279e-05
2.83507e-05
1.81091e-05
2.60603e-05
2.25961e-05
2.33083e-05
2.69397e-05
1.9977e-05
3.02554e-05
1.59751e-05
3.09829e-05
1.11542e-05
2.66419e-05
5.54888e-06
1.42844e-05
-8.75075e-06
9.0508e-07
5.99823e-07
2.07298e-06
-4.71711e-06
3.33317e-06
-7.72553e-06
4.62304e-06
-9.1459e-06
5.9101e-06
-9.66035e-06
7.18058e-06
-9.69191e-06
8.43005e-06
-9.49544e-06
9.65882e-06
-9.21738e-06
1.08696e-05
-8.93658e-06
1.20662e-05
-8.69144e-06
1.32527e-05
-8.49702e-06
1.44327e-05
-8.35546e-06
1.56097e-05
-8.26218e-06
1.67862e-05
-8.20947e-06
1.79642e-05
-8.18833e-06
1.91447e-05
-8.18943e-06
2.03278e-05
-8.20344e-06
2.1513e-05
-8.22105e-06
2.26984e-05
-8.23281e-06
2.38813e-05
-8.22892e-06
2.50576e-05
-8.1989e-06
2.6222e-05
-8.13133e-06
2.73676e-05
-8.01355e-06
2.84859e-05
-7.83141e-06
2.95662e-05
-7.56901e-06
3.05958e-05
-7.20847e-06
3.15596e-05
-6.72974e-06
3.24398e-05
-6.11036e-06
3.32157e-05
-5.32515e-06
3.38638e-05
-4.34575e-06
3.43578e-05
-3.14006e-06
3.46684e-05
-1.67161e-06
3.47651e-05
1.02033e-07
3.46168e-05
2.22999e-06
3.41939e-05
4.76593e-06
3.34708e-05
7.7637e-06
3.2428e-05
1.1269e-05
3.1054e-05
1.53019e-05
2.93405e-05
1.98226e-05
2.72686e-05
2.4668e-05
2.47748e-05
2.94334e-05
2.17255e-05
3.33047e-05
1.79256e-05
3.47828e-05
1.30774e-05
3.14901e-05
6.9708e-06
2.0391e-05
-1.77995e-06
9.63783e-07
-3.6396e-07
2.2459e-06
-5.99923e-06
3.58191e-06
-9.06154e-06
4.90537e-06
-1.04694e-05
6.19762e-06
-1.09526e-05
7.45783e-06
-1.09521e-05
8.69069e-06
-1.07283e-05
9.902e-06
-1.04287e-05
1.10973e-05
-1.01318e-05
1.22813e-05
-9.8755e-06
1.34583e-05
-9.674e-06
1.46316e-05
-9.52879e-06
1.58041e-05
-9.43462e-06
1.69777e-05
-9.38308e-06
1.81538e-05
-9.36448e-06
1.93332e-05
-9.36876e-06
2.05156e-05
-9.38583e-06
2.17001e-05
-9.40555e-06
2.28848e-05
-9.41759e-06
2.4067e-05
-9.41111e-06
2.52427e-05
-9.37453e-06
2.64065e-05
-9.29516e-06
2.75518e-05
-9.1589e-06
2.86704e-05
-8.94995e-06
2.97519e-05
-8.65056e-06
3.07842e-05
-8.24075e-06
3.17526e-05
-7.69817e-06
3.26401e-05
-6.99783e-06
3.34269e-05
-6.11189e-06
3.40905e-05
-5.00936e-06
3.4606e-05
-3.6556e-06
3.49464e-05
-2.01196e-06
3.50832e-05
-3.47683e-08
3.49883e-05
2.32487e-06
3.46355e-05
5.1187e-06
3.40026e-05
8.39663e-06
3.30727e-05
1.21988e-05
3.18345e-05
1.65401e-05
3.02766e-05
2.13805e-05
2.83736e-05
2.65711e-05
2.60557e-05
3.17513e-05
2.31739e-05
3.61864e-05
1.94733e-05
3.84834e-05
1.45552e-05
3.64083e-05
8.02186e-06
2.69243e-05
6.24191e-06
1.00233e-06
-1.36629e-06
2.36974e-06
-7.36664e-06
3.76799e-06
-1.04598e-05
5.12174e-06
-1.18231e-05
6.42102e-06
-1.22519e-05
7.67487e-06
-1.2206e-05
8.89542e-06
-1.19489e-05
1.00931e-05
-1.16264e-05
1.12759e-05
-1.13146e-05
1.24496e-05
-1.10493e-05
1.36187e-05
-1.08431e-05
1.47863e-05
-1.06964e-05
1.59548e-05
-1.06031e-05
1.71258e-05
-1.05541e-05
1.83002e-05
-1.05389e-05
1.94785e-05
-1.0547e-05
2.06601e-05
-1.05675e-05
2.18441e-05
-1.05895e-05
2.30284e-05
-1.06019e-05
2.42103e-05
-1.05929e-05
2.53857e-05
-1.055e-05
2.65497e-05
-1.04591e-05
2.76957e-05
-1.03049e-05
2.88157e-05
-1.007e-05
2.99e-05
-9.73488e-06
3.09368e-05
-9.27755e-06
3.19121e-05
-8.67344e-06
3.28095e-05
-7.89516e-06
3.361e-05
-6.91239e-06
3.42923e-05
-5.69166e-06
3.48328e-05
-4.19615e-06
3.52063e-05
-2.38546e-06
3.53867e-05
-2.1513e-07
3.53484e-05
2.36315e-06
3.5068e-05
5.39905e-06
3.45258e-05
8.93884e-06
3.37062e-05
1.30185e-05
3.25963e-05
1.76501e-05
3.11795e-05
2.27973e-05
2.9421e-05
2.83295e-05
2.724e-05
3.39324e-05
2.44702e-05
3.89562e-05
2.08135e-05
4.21401e-05
1.57953e-05
4.14265e-05
8.90143e-06
3.38182e-05
1.51433e-05
1.03147e-06
-2.39776e-06
2.4616e-06
-8.79677e-06
3.90645e-06
-1.19046e-05
5.28276e-06
-1.31994e-05
6.58686e-06
-1.3556e-05
7.83529e-06
-1.34544e-05
9.04584e-06
-1.31594e-05
1.02325e-05
-1.2813e-05
1.14051e-05
-1.24873e-05
1.25705e-05
-1.22146e-05
1.37331e-05
-1.20057e-05
1.4896e-05
-1.18593e-05
1.60611e-05
-1.17683e-05
1.72299e-05
-1.17228e-05
1.8403e-05
-1.1712e-05
1.95803e-05
-1.17244e-05
2.07614e-05
-1.17486e-05
2.1945e-05
-1.17731e-05
2.31291e-05
-1.1786e-05
2.43109e-05
-1.17748e-05
2.54867e-05
-1.17257e-05
2.66514e-05
-1.16238e-05
2.77989e-05
-1.14525e-05
2.89216e-05
-1.11927e-05
3.00101e-05
-1.08234e-05
3.10531e-05
-1.03206e-05
3.20373e-05
-9.65759e-06
3.29469e-05
-8.80473e-06
3.37638e-05
-7.7293e-06
3.44677e-05
-6.3956e-06
3.50364e-05
-4.76486e-06
3.54463e-05
-2.79533e-06
3.56733e-05
-4.42187e-07
3.56945e-05
2.34202e-06
3.54887e-05
5.60482e-06
3.50382e-05
9.38935e-06
3.4328e-05
1.37286e-05
3.33434e-05
1.86347e-05
3.20625e-05
2.40782e-05
3.04415e-05
2.99505e-05
2.83871e-05
3.59868e-05
2.57147e-05
4.16286e-05
2.20885e-05
4.57663e-05
1.69644e-05
4.65506e-05
9.72857e-06
4.1054e-05
2.48719e-05
1.05683e-06
-3.45459e-06
2.5324e-06
-1.02723e-05
4.0084e-06
-1.33806e-05
5.39741e-06
-1.45884e-05
6.70151e-06
-1.48601e-05
7.94319e-06
-1.46961e-05
9.14434e-06
-1.43605e-05
1.03214e-05
-1.39901e-05
1.14855e-05
-1.36514e-05
1.2644e-05
-1.3373e-05
1.38012e-05
-1.31629e-05
1.49602e-05
-1.30182e-05
1.61227e-05
-1.29308e-05
1.72897e-05
-1.28898e-05
1.84616e-05
-1.28839e-05
1.96383e-05
-1.2901e-05
2.0819e-05
-1.29293e-05
2.20024e-05
-1.29565e-05
2.31866e-05
-1.29702e-05
2.43687e-05
-1.29569e-05
2.55451e-05
-1.29021e-05
2.67112e-05
-1.27899e-05
2.7861e-05
-1.26022e-05
2.89872e-05
-1.23189e-05
3.0081e-05
-1.19172e-05
3.11317e-05
-1.13713e-05
3.21265e-05
-1.06524e-05
3.30504e-05
-9.7286e-06
3.38861e-05
-8.565e-06
3.46143e-05
-7.12378e-06
3.52139e-05
-5.36452e-06
3.5663e-05
-3.24444e-06
3.59396e-05
-7.18736e-07
3.60227e-05
2.25892e-06
3.58936e-05
5.73392e-06
3.55362e-05
9.74672e-06
3.49363e-05
1.43286e-05
3.40776e-05
1.94933e-05
3.29344e-05
2.52214e-05
3.14558e-05
3.14292e-05
2.95378e-05
3.79048e-05
2.69787e-05
4.41877e-05
2.34066e-05
4.93384e-05
1.82043e-05
5.17529e-05
1.06374e-05
4.8621e-05
3.55093e-05
1.08153e-06
-4.53612e-06
2.58885e-06
-1.17797e-05
4.08158e-06
-1.48734e-05
5.47271e-06
-1.59796e-05
6.77064e-06
-1.6158e-05
8.00277e-06
-1.59282e-05
9.19385e-06
-1.55516e-05
1.03618e-05
-1.5158e-05
1.15182e-05
-1.48079e-05
1.26706e-05
-1.45254e-05
1.38233e-05
-1.43157e-05
1.49791e-05
-1.4174e-05
1.61394e-05
-1.40911e-05
1.7305e-05
-1.40554e-05
1.84761e-05
-1.40549e-05
1.96522e-05
-1.40772e-05
2.08327e-05
-1.41098e-05
2.20161e-05
-1.414e-05
2.32005e-05
-1.41546e-05
2.43831e-05
-1.41395e-05
2.55606e-05
-1.40795e-05
2.67283e-05
-1.39576e-05
2.78808e-05
-1.37548e-05
2.90113e-05
-1.34494e-05
3.01114e-05
-1.30172e-05
3.11708e-05
-1.24308e-05
3.21777e-05
-1.16592e-05
3.31175e-05
-1.06685e-05
3.3974e-05
-9.42148e-06
3.47287e-05
-7.87846e-06
3.53617e-05
-5.99754e-06
3.58525e-05
-3.73526e-06
3.6181e-05
-1.04718e-06
3.63282e-05
2.11164e-06
3.62778e-05
5.7844e-06
3.60152e-05
1.00092e-05
3.55274e-05
1.48164e-05
3.4798e-05
2.02228e-05
3.37992e-05
2.62202e-05
3.24763e-05
3.27521e-05
3.07193e-05
3.96617e-05
2.83135e-05
4.65935e-05
2.48546e-05
5.27973e-05
1.96465e-05
5.6961e-05
1.17777e-05
5.64898e-05
4.7287e-05
1.10735e-06
-5.64346e-06
2.63487e-06
-1.33072e-05
4.13106e-06
-1.63696e-05
5.51393e-06
-1.73624e-05
6.79905e-06
-1.74431e-05
8.01807e-06
-1.71472e-05
9.19757e-06
-1.67311e-05
1.0356e-05
-1.63164e-05
1.1505e-05
-1.59569e-05
1.26517e-05
-1.56722e-05
1.38004e-05
-1.54643e-05
1.49534e-05
-1.5327e-05
1.61118e-05
-1.52495e-05
1.72762e-05
-1.52199e-05
1.84466e-05
-1.52253e-05
1.96224e-05
-1.5253e-05
2.08027e-05
-1.52901e-05
2.19862e-05
-1.53234e-05
2.31708e-05
-1.53392e-05
2.4354e-05
-1.53227e-05
2.55325e-05
-1.52581e-05
2.67021e-05
-1.51273e-05
2.78577e-05
-1.49103e-05
2.89928e-05
-1.45845e-05
3.00996e-05
-1.4124e-05
3.11686e-05
-1.34998e-05
3.21885e-05
-1.26791e-05
3.31456e-05
-1.16256e-05
3.40244e-05
-1.03003e-05
3.48074e-05
-8.6614e-06
3.54757e-05
-6.66585e-06
3.60102e-05
-4.26979e-06
3.63925e-05
-1.42945e-06
3.66057e-05
1.89838e-06
3.66355e-05
5.7546e-06
3.64697e-05
1.01751e-05
3.60965e-05
1.51896e-05
3.5501e-05
2.08183e-05
3.46562e-05
2.70649e-05
3.35083e-05
3.39e-05
3.19473e-05
4.12227e-05
2.97551e-05
4.87857e-05
2.65049e-05
5.60474e-05
2.14254e-05
6.20405e-05
1.33358e-05
6.45794e-05
6.06228e-05
1.13536e-06
-6.77882e-06
2.67259e-06
-1.48444e-05
4.15996e-06
-1.78569e-05
5.52484e-06
-1.87273e-05
6.79068e-06
-1.8709e-05
7.99281e-06
-1.83494e-05
9.15874e-06
-1.78971e-05
1.03067e-05
-1.74644e-05
1.1448e-05
-1.70982e-05
1.25892e-05
-1.68133e-05
1.37339e-05
-1.66091e-05
1.48842e-05
-1.64772e-05
1.60408e-05
-1.64062e-05
1.72042e-05
-1.63832e-05
1.83739e-05
-1.6395e-05
1.95493e-05
-1.64284e-05
2.07294e-05
-1.64702e-05
2.19128e-05
-1.65068e-05
2.30976e-05
-1.6524e-05
2.42813e-05
-1.65064e-05
2.54608e-05
-1.64375e-05
2.66321e-05
-1.62986e-05
2.77906e-05
-1.60688e-05
2.89304e-05
-1.57242e-05
3.00441e-05
-1.52378e-05
3.1123e-05
-1.45787e-05
3.21565e-05
-1.37125e-05
3.31317e-05
-1.26009e-05
3.40339e-05
-1.12025e-05
3.48464e-05
-9.47388e-06
3.55514e-05
-7.37088e-06
3.61311e-05
-4.84947e-06
3.65686e-05
-1.86694e-06
3.68491e-05
1.61786e-06
3.69604e-05
5.64329e-06
3.68926e-05
1.02429e-05
3.66367e-05
1.54455e-05
3.61803e-05
2.12746e-05
3.55005e-05
2.77447e-05
3.45492e-05
3.48513e-05
3.32257e-05
4.25463e-05
3.1323e-05
5.06884e-05
2.84154e-05
5.8955e-05
2.36843e-05
6.67716e-05
1.55613e-05
7.27023e-05
7.61842e-05
1.16647e-06
-7.94529e-06
2.70275e-06
-1.63807e-05
4.17001e-06
-1.93242e-05
5.5081e-06
-2.00654e-05
6.74878e-06
-1.99497e-05
7.93039e-06
-1.9531e-05
9.08062e-06
-1.90473e-05
1.0217e-05
-1.86007e-05
1.13499e-05
-1.8231e-05
1.24851e-05
-1.79485e-05
1.36257e-05
-1.77497e-05
1.47731e-05
-1.76247e-05
1.5928e-05
-1.7561e-05
1.70901e-05
-1.75453e-05
1.8259e-05
-1.75639e-05
1.94338e-05
-1.76033e-05
2.06135e-05
-1.765e-05
2.17967e-05
-1.76899e-05
2.29813e-05
-1.77086e-05
2.41651e-05
-1.76902e-05
2.53452e-05
-1.76176e-05
2.65179e-05
-1.74714e-05
2.7679e-05
-1.72299e-05
2.8823e-05
-1.68682e-05
2.99433e-05
-1.63581e-05
3.10319e-05
-1.56674e-05
3.2079e-05
-1.47596e-05
3.30726e-05
-1.35945e-05
3.39986e-05
-1.21285e-05
3.48414e-05
-1.03166e-05
3.55839e-05
-8.11344e-06
3.62096e-05
-5.47517e-06
3.67031e-05
-2.36043e-06
3.70515e-05
1.26945e-06
3.72449e-05
5.44988e-06
3.72761e-05
1.02117e-05
3.71393e-05
1.55823e-05
3.68267e-05
2.15872e-05
3.63221e-05
2.82494e-05
3.55887e-05
3.55847e-05
3.45451e-05
4.35898e-05
3.30165e-05
5.2217e-05
3.06191e-05
6.13524e-05
2.65819e-05
7.08087e-05
1.8839e-05
8.04453e-05
9.50231e-05
1.19809e-06
-9.14338e-06
2.72491e-06
-1.79075e-05
4.16189e-06
-2.07612e-05
5.46568e-06
-2.13692e-05
6.67629e-06
-2.11603e-05
7.8343e-06
-2.0689e-05
8.96691e-06
-2.01799e-05
1.00905e-05
-1.97243e-05
1.12142e-05
-1.93548e-05
1.23429e-05
-1.90773e-05
1.34791e-05
-1.88858e-05
1.46235e-05
-1.87691e-05
1.57763e-05
-1.87138e-05
1.69369e-05
-1.8706e-05
1.81048e-05
-1.87317e-05
1.92788e-05
-1.87774e-05
2.04579e-05
-1.8829e-05
2.16403e-05
-1.88724e-05
2.28244e-05
-1.88927e-05
2.40079e-05
-1.88737e-05
2.5188e-05
-1.87977e-05
2.63615e-05
-1.86449e-05
2.75244e-05
-1.83928e-05
2.8672e-05
-1.80157e-05
2.97983e-05
-1.74844e-05
3.08961e-05
-1.67651e-05
3.19563e-05
-1.58199e-05
3.2968e-05
-1.46062e-05
3.39179e-05
-1.30784e-05
3.4791e-05
-1.11897e-05
3.55714e-05
-8.89377e-06
3.62433e-05
-6.14709e-06
3.67928e-05
-2.90996e-06
3.72089e-05
8.53323e-07
3.74841e-05
5.1747e-06
3.76141e-05
1.00817e-05
3.75971e-05
1.55994e-05
3.7431e-05
2.17534e-05
3.71088e-05
2.85715e-05
3.661e-05
3.60835e-05
3.58829e-05
4.4317e-05
3.48082e-05
5.32918e-05
3.31076e-05
6.3053e-05
3.01751e-05
7.37412e-05
2.31368e-05
8.74836e-05
0.00011816
-2.88855e-07
2.88855e-07
-1.81426e-06
1.5254e-06
-3.41622e-06
1.60198e-06
-4.65344e-06
1.23722e-06
-5.45087e-06
7.9745e-07
-5.83781e-06
3.86924e-07
-5.87088e-06
3.308e-08
-5.63507e-06
-2.35819e-07
-5.20277e-06
-4.32291e-07
-4.63013e-06
-5.72643e-07
-3.96382e-06
-6.6632e-07
-3.24411e-06
-7.19704e-07
-2.50499e-06
-7.39128e-07
-1.77507e-06
-7.29907e-07
-1.07771e-06
-6.9736e-07
-4.30676e-07
-6.47046e-07
1.53928e-07
-5.84598e-07
6.67935e-07
-5.1402e-07
1.10732e-06
-4.39396e-07
1.47084e-06
-3.63535e-07
1.7594e-06
-2.88566e-07
1.97548e-06
-2.1609e-07
2.12268e-06
-1.47211e-07
2.20516e-06
-8.24856e-08
2.22704e-06
-2.1898e-08
2.19318e-06
3.38647e-08
2.10924e-06
8.39209e-08
1.98062e-06
1.28616e-07
1.81279e-06
1.67852e-07
1.61104e-06
2.0172e-07
1.3804e-06
2.30631e-07
1.12606e-06
2.5436e-07
8.54452e-07
2.716e-07
5.75411e-07
2.79052e-07
3.05333e-07
2.70091e-07
7.61564e-08
2.29189e-07
-5.07552e-08
1.26922e-07
-5.07376e-08
-9.18172e-07
1.20705e-06
-2.50451e-06
3.11174e-06
-4.02823e-06
3.12572e-06
-5.15893e-06
2.36791e-06
-5.85589e-06
1.49443e-06
-6.15893e-06
6.89953e-07
-6.15438e-06
2.85406e-08
-5.89532e-06
-4.94892e-07
-5.44495e-06
-8.82656e-07
-4.85516e-06
-1.16243e-06
-4.17221e-06
-1.34929e-06
-3.43548e-06
-1.45642e-06
-2.67825e-06
-1.49638e-06
-1.92843e-06
-1.47971e-06
-1.20872e-06
-1.41707e-06
-5.36924e-07
-1.31887e-06
7.35988e-08
-1.19512e-06
6.14055e-07
-1.0545e-06
1.07944e-06
-9.04784e-07
1.46759e-06
-7.51699e-07
1.77875e-06
-5.9974e-07
2.01488e-06
-4.52249e-07
2.17926e-06
-3.11609e-07
2.27617e-06
-1.79393e-07
2.31066e-06
-5.64194e-08
2.28798e-06
5.65407e-08
2.21282e-06
1.59101e-07
2.09018e-06
2.51214e-07
1.92553e-06
3.325e-07
1.72448e-06
4.02794e-07
1.49285e-06
4.62255e-07
1.23697e-06
5.10259e-07
9.64246e-07
5.44329e-07
6.8475e-07
5.58567e-07
4.13585e-07
5.41283e-07
1.74464e-07
4.68309e-07
1.27814e-08
2.88604e-07
-3.79408e-08
-1.36227e-06
2.56935e-06
-2.89892e-06
4.64838e-06
-4.30147e-06
4.5283e-06
-5.35249e-06
3.41891e-06
-6.00455e-06
2.1465e-06
-6.28721e-06
9.7262e-07
-6.26015e-06
1.48088e-09
-5.98874e-06
-7.66303e-07
-5.52863e-06
-1.34277e-06
-4.93303e-06
-1.75802e-06
-4.24717e-06
-2.03516e-06
-3.50928e-06
-2.19428e-06
-2.75153e-06
-2.25415e-06
-2.00068e-06
-2.23057e-06
-1.27854e-06
-2.1392e-06
-6.02461e-07
-1.99496e-06
1.43827e-08
-1.81198e-06
5.62833e-07
-1.60297e-06
1.03729e-06
-1.37924e-06
1.43509e-06
-1.14951e-06
1.75603e-06
-9.20689e-07
2.00173e-06
-6.97968e-07
2.17518e-06
-4.85079e-07
2.28049e-06
-2.84689e-07
2.32251e-06
-9.8454e-08
2.30638e-06
7.26735e-08
2.23725e-06
2.28261e-07
2.12037e-06
3.68077e-07
1.96132e-06
4.9157e-07
1.7659e-06
5.98219e-07
1.54035e-06
6.8778e-07
1.29163e-06
7.59009e-07
1.02762e-06
8.0832e-07
7.58199e-07
8.27967e-07
4.96285e-07
8.03223e-07
2.57846e-07
7.06756e-07
6.90497e-08
4.77411e-07
3.11372e-08
-1.65727e-06
4.22663e-06
-3.19667e-06
6.18778e-06
-4.5335e-06
5.86516e-06
-5.52679e-06
4.4122e-06
-6.1368e-06
2.75652e-06
-6.38785e-06
1.22367e-06
-6.3361e-06
-5.02598e-08
-6.04432e-06
-1.05808e-06
-5.57039e-06
-1.81671e-06
-4.96626e-06
-2.36215e-06
-4.2762e-06
-2.72524e-06
-3.53732e-06
-2.93315e-06
-2.78059e-06
-3.01089e-06
-2.03159e-06
-2.97959e-06
-1.31111e-06
-2.85967e-06
-6.3578e-07
-2.67029e-06
-1.83334e-08
-2.42943e-06
5.32152e-07
-2.15347e-06
1.00983e-06
-1.85692e-06
1.41179e-06
-1.55149e-06
1.73752e-06
-1.24643e-06
1.98841e-06
-9.48849e-07
2.16722e-06
-6.63915e-07
2.27791e-06
-3.95357e-07
2.32515e-06
-1.45685e-07
2.31408e-06
8.37206e-08
2.25008e-06
2.92263e-07
2.13857e-06
4.7955e-07
1.98523e-06
6.44927e-07
1.796e-06
7.87482e-07
1.57731e-06
9.06465e-07
1.33638e-06
9.99981e-07
1.08126e-06
1.06348e-06
8.21377e-07
1.08785e-06
5.67922e-07
1.05666e-06
3.32857e-07
9.41824e-07
1.29159e-07
6.8111e-07
1.60305e-07
-1.86439e-06
6.09104e-06
-3.45105e-06
7.77443e-06
-4.76749e-06
7.18162e-06
-5.7202e-06
5.36492e-06
-6.28831e-06
3.32464e-06
-6.50054e-06
1.43591e-06
-6.41507e-06
-1.35734e-07
-6.0953e-06
-1.37786e-06
-5.60022e-06
-2.31179e-06
-4.98146e-06
-2.98091e-06
-4.28242e-06
-3.4243e-06
-3.53909e-06
-3.67648e-06
-2.78126e-06
-3.76872e-06
-2.03326e-06
-3.72761e-06
-1.31479e-06
-3.57814e-06
-6.41568e-07
-3.34353e-06
-2.56856e-08
-3.04531e-06
5.24083e-07
-2.70326e-06
1.002e-06
-2.33483e-06
1.40507e-06
-1.95457e-06
1.73266e-06
-1.57405e-06
1.98599e-06
-1.20217e-06
2.16769e-06
-8.45635e-07
2.28155e-06
-5.0924e-07
2.33217e-06
-1.96308e-07
2.32468e-06
9.11919e-08
2.26457e-06
3.524e-07
2.1574e-06
5.86726e-07
2.00894e-06
7.93396e-07
1.8252e-06
9.71242e-07
1.61267e-06
1.11897e-06
1.3786e-06
1.23403e-06
1.13093e-06
1.31114e-06
8.78476e-07
1.34031e-06
6.30909e-07
1.30426e-06
3.97783e-07
1.17497e-06
1.85153e-07
8.93732e-07
3.45441e-07
-2.03529e-06
8.12635e-06
-3.70015e-06
9.43928e-06
-5.02886e-06
8.51033e-06
-5.95252e-06
6.28859e-06
-6.47638e-06
3.8485e-06
-6.64137e-06
1.60091e-06
-6.51192e-06
-2.6518e-07
-6.15468e-06
-1.73511e-06
-5.62985e-06
-2.83662e-06
-4.98906e-06
-3.6217e-06
-4.27498e-06
-4.1384e-06
-3.52249e-06
-4.42898e-06
-2.76013e-06
-4.53108e-06
-2.01096e-06
-4.4768e-06
-1.29346e-06
-4.29564e-06
-6.22326e-07
-4.01467e-06
-8.83848e-09
-3.6588e-06
5.38781e-07
-3.25088e-06
1.01509e-06
-2.81116e-06
1.41722e-06
-2.35672e-06
1.74455e-06
-1.9014e-06
1.99822e-06
-1.45586e-06
2.18079e-06
-1.02821e-06
2.29598e-06
-6.24413e-07
2.3483e-06
-2.48622e-07
2.34289e-06
9.65819e-08
2.28532e-06
4.09971e-07
2.18123e-06
6.90799e-07
2.03645e-06
9.38153e-07
1.85701e-06
1.15068e-06
1.64939e-06
1.32659e-06
1.42067e-06
1.46278e-06
1.1785e-06
1.55334e-06
9.30913e-07
1.58789e-06
6.86048e-07
1.54914e-06
4.5067e-07
1.41035e-06
2.2542e-07
1.11899e-06
5.7084e-07
-2.21143e-06
1.03378e-05
-3.97916e-06
1.1207e-05
-5.34143e-06
9.87262e-06
-6.24027e-06
7.18744e-06
-6.71325e-06
4.32147e-06
-6.81996e-06
1.70762e-06
-6.63481e-06
-4.50318e-07
-6.22926e-06
-2.14066e-06
-5.66517e-06
-3.4007e-06
-4.99426e-06
-4.29261e-06
-4.25847e-06
-4.87419e-06
-3.49152e-06
-5.19593e-06
-2.72064e-06
-5.30197e-06
-1.9675e-06
-5.22994e-06
-1.24931e-06
-5.01384e-06
-5.79575e-07
-4.68442e-06
3.13741e-08
-4.26977e-06
5.76053e-07
-3.79556e-06
1.0495e-06
-3.28463e-06
1.44916e-06
-2.75638e-06
1.77451e-06
-2.22672e-06
2.02677e-06
-1.70811e-06
2.20846e-06
-1.20994e-06
2.32329e-06
-7.39243e-07
2.37572e-06
-3.01081e-07
2.37092e-06
1.01366e-07
2.31446e-06
4.66426e-07
2.21207e-06
7.93198e-07
2.06959e-06
1.08065e-06
1.89305e-06
1.32724e-06
1.6888e-06
1.53082e-06
1.46369e-06
1.68788e-06
1.22489e-06
1.79216e-06
9.79618e-07
1.83316e-06
7.34498e-07
1.79428e-06
4.93811e-07
1.65102e-06
2.54356e-07
1.35848e-06
8.25193e-07
-2.43124e-06
1.2769e-05
-4.32406e-06
1.30998e-05
-5.72995e-06
1.12785e-05
-6.5992e-06
8.05669e-06
-7.00892e-06
4.7312e-06
-7.04311e-06
1.7418e-06
-6.78877e-06
-7.04646e-07
-6.323e-06
-2.60644e-06
-5.70948e-06
-4.01421e-06
-4.99994e-06
-5.00216e-06
-4.23544e-06
-5.6387e-06
-3.44845e-06
-5.98292e-06
-2.66477e-06
-6.08566e-06
-1.90458e-06
-5.99014e-06
-1.1837e-06
-5.73474e-06
-5.14315e-07
-5.3538e-06
9.43349e-08
-4.87843e-06
6.35661e-07
-4.33688e-06
1.10537e-06
-3.75432e-06
1.50131e-06
-3.15233e-06
1.82325e-06
-2.54868e-06
2.07253e-06
-1.95741e-06
2.25177e-06
-1.3892e-06
2.36465e-06
-8.52104e-07
2.41567e-06
-3.5209e-07
2.40997e-06
1.07047e-07
2.35319e-06
5.23221e-07
2.25105e-06
8.95319e-07
2.1094e-06
1.22228e-06
1.93422e-06
1.50243e-06
1.7317e-06
1.73335e-06
1.50835e-06
1.91123e-06
1.27083e-06
2.02968e-06
1.02547e-06
2.07849e-06
7.77588e-07
2.04219e-06
5.29575e-07
1.89903e-06
2.76106e-07
1.61197e-06
1.10131e-06
-2.73709e-06
1.55061e-05
-4.77446e-06
1.51372e-05
-6.22026e-06
1.27243e-05
-7.04407e-06
8.8805e-06
-7.37142e-06
5.05856e-06
-7.31537e-06
1.68575e-06
-6.97669e-06
-1.04331e-06
-6.43803e-06
-3.14511e-06
-5.76456e-06
-4.68767e-06
-5.00765e-06
-5.75907e-06
-4.20731e-06
-6.43904e-06
-3.39459e-06
-6.79564e-06
-2.59369e-06
-6.88657e-06
-1.82324e-06
-6.76058e-06
-1.09749e-06
-6.46049e-06
-4.27224e-07
-6.02407e-06
1.79589e-07
-5.48524e-06
7.1739e-07
-4.87468e-06
1.18268e-06
-4.21962e-06
1.57388e-06
-3.54355e-06
1.89114e-06
-2.86594e-06
2.13605e-06
-2.20229e-06
2.31135e-06
-1.56449e-06
2.42079e-06
-9.61534e-07
2.46889e-06
-4.00186e-07
2.46084e-06
1.15077e-07
2.40225e-06
5.81805e-07
2.29889e-06
9.98671e-07
2.15656e-06
1.3646e-06
1.98115e-06
1.67784e-06
1.77865e-06
1.93583e-06
1.55522e-06
2.13465e-06
1.31695e-06
2.26796e-06
1.06935e-06
2.32608e-06
8.16611e-07
2.29496e-06
5.59836e-07
2.15581e-06
2.92891e-07
1.87893e-06
1.39421e-06
-3.18167e-06
1.86878e-05
-5.37563e-06
1.73311e-05
-6.83819e-06
1.41869e-05
-7.58722e-06
9.62952e-06
-7.80571e-06
5.27706e-06
-7.63863e-06
1.51866e-06
-7.19939e-06
-1.48253e-06
-6.57493e-06
-3.76957e-06
-5.83097e-06
-5.43162e-06
-5.01804e-06
-6.57202e-06
-4.17476e-06
-7.28233e-06
-3.3306e-06
-7.63978e-06
-2.50808e-06
-7.7091e-06
-1.7241e-06
-7.54458e-06
-9.91251e-07
-7.19333e-06
-3.18755e-07
-6.69657e-06
2.86799e-07
-6.09082e-06
8.21046e-07
-5.40892e-06
1.28141e-06
-4.67998e-06
1.667e-06
-3.92913e-06
1.97844e-06
-3.17737e-06
2.21766e-06
-2.44151e-06
2.38764e-06
-1.73446e-06
2.49219e-06
-1.06611e-06
2.53593e-06
-4.4392e-07
2.52405e-06
1.26949e-07
2.4622e-06
6.43657e-07
2.35612e-06
1.10475e-06
2.21155e-06
1.50914e-06
2.03429e-06
1.85511e-06
1.83012e-06
2.14001e-06
1.60479e-06
2.35997e-06
1.36388e-06
2.50891e-06
1.1121e-06
2.57786e-06
8.52759e-07
2.55431e-06
5.8617e-07
2.42239e-06
3.06287e-07
2.15882e-06
1.70049e-06
-3.83472e-06
2.25225e-05
-6.17947e-06
1.96759e-05
-7.60683e-06
1.56142e-05
-8.23572e-06
1.02584e-05
-8.31192e-06
5.35328e-06
-8.01109e-06
1.21782e-06
-7.45516e-06
-2.03845e-06
-6.73258e-06
-4.49217e-06
-5.90816e-06
-6.25604e-06
-5.03092e-06
-7.44926e-06
-4.13785e-06
-8.17541e-06
-3.25672e-06
-8.52092e-06
-2.40823e-06
-8.55759e-06
-1.60749e-06
-8.34534e-06
-8.653e-07
-7.93554e-06
-1.89203e-07
-7.37265e-06
4.15743e-07
-6.69577e-06
9.46486e-07
-5.93967e-06
1.4015e-06
-5.13499e-06
1.7807e-06
-4.30832e-06
2.08528e-06
-3.48196e-06
2.3176e-06
-2.67385e-06
2.48092e-06
-1.89778e-06
2.5792e-06
-1.1644e-06
2.61714e-06
-4.81861e-07
2.6e-06
1.44097e-07
2.53341e-06
7.10232e-07
2.42311e-06
1.21505e-06
2.27477e-06
1.65747e-06
2.09405e-06
2.03584e-06
1.88651e-06
2.34757e-06
1.65754e-06
2.58892e-06
1.41218e-06
2.75429e-06
1.1545e-06
2.83553e-06
8.87096e-07
2.82173e-06
6.09876e-07
2.6996e-06
3.17482e-07
2.45123e-06
2.01796e-06
-4.79054e-06
2.73131e-05
-7.24306e-06
2.21284e-05
-8.54128e-06
1.69125e-05
-8.9871e-06
1.07042e-05
-8.88268e-06
5.24887e-06
-8.42588e-06
7.61e-07
-7.73908e-06
-2.72524e-06
-6.90787e-06
-5.32338e-06
-5.99431e-06
-7.1696e-06
-5.04531e-06
-8.39828e-06
-4.09611e-06
-9.12462e-06
-3.17275e-06
-9.44427e-06
-2.29415e-06
-9.4362e-06
-1.4735e-06
-9.16599e-06
-7.1978e-07
-8.68927e-06
-3.87224e-08
-8.05371e-06
5.66283e-07
-7.30076e-06
1.09362e-06
-6.467e-06
1.54292e-06
-5.58431e-06
1.91501e-06
-4.6804e-06
2.21176e-06
-3.77872e-06
2.43602e-06
-2.89812e-06
2.59139e-06
-2.05316e-06
2.68205e-06
-1.25507e-06
2.71281e-06
-5.12617e-07
2.68897e-06
1.6793e-07
2.61619e-06
7.82995e-07
2.50019e-06
1.33107e-06
2.34654e-06
1.81113e-06
2.16075e-06
2.22163e-06
1.94818e-06
2.56015e-06
1.71388e-06
2.82321e-06
1.46242e-06
3.00577e-06
1.19728e-06
3.10065e-06
9.2055e-07
3.09848e-06
6.32013e-07
2.98813e-06
3.27347e-07
2.75591e-06
2.3453e-06
-6.17595e-06
3.3489e-05
-8.62167e-06
2.45741e-05
-9.6401e-06
1.79309e-05
-9.82354e-06
1.08877e-05
-9.50007e-06
4.92542e-06
-8.86952e-06
1.30433e-07
-8.04226e-06
-3.55249e-06
-7.09533e-06
-6.27031e-06
-6.08619e-06
-8.17874e-06
-5.05935e-06
-9.42513e-06
-4.04848e-06
-1.01355e-05
-3.07813e-06
-1.04146e-05
-2.16554e-06
-1.03488e-05
-1.32204e-06
-1.00095e-05
-5.54678e-07
-9.45663e-06