/*--------------------------------*- C++ -*----------------------------------*\
  =========                 |
  \\      /  F ield         | OpenFOAM: The Open Source CFD Toolbox
   \\    /   O peration     | Website:  https://openfoam.org
    \\  /    A nd           | Version:  7
     \\/     M anipulation  |
\*---------------------------------------------------------------------------*/
FoamFile
{
    version     2.0;
    format      ascii;
    class       volVectorField;
    location    "0.3";
    object      U;
}
// * * * * * * * * * * * * * * * * * * * * * * * * * * * * * * * * * * * * * //

dimensions      [0 1 -1 0 0 0 0];

internalField   nonuniform List<vector> 
9072
(
(-0.036823 0.0122551 0)
(-0.0507547 0.00121048 0)
(-0.03319 -0.00847423 0)
(-0.00335581 -0.0109151 0)
(0.0319266 -0.0116187 0)
(0.0678245 -0.0113036 0)
(0.102704 -0.0106207 0)
(0.135837 -0.00988717 0)
(0.167098 -0.0092203 0)
(0.196689 -0.00866106 0)
(0.224927 -0.00821842 0)
(0.252136 -0.00788502 0)
(0.278614 -0.00764636 0)
(0.304614 -0.0074861 0)
(0.330344 -0.0073883 0)
(0.355961 -0.00733814 0)
(0.381579 -0.00732193 0)
(0.407269 -0.00732691 0)
(0.433064 -0.00734084 0)
(0.458952 -0.00735154 0)
(0.484885 -0.0073465 0)
(0.51077 -0.0073124 0)
(0.536466 -0.00723476 0)
(0.561783 -0.00709759 0)
(0.586472 -0.0068831 0)
(0.61022 -0.00657136 0)
(0.632641 -0.00613997 0)
(0.653268 -0.00556326 0)
(0.671535 -0.00481137 0)
(0.686766 -0.00384167 0)
(0.698067 -0.00260092 0)
(0.7046 -0.000801408 0)
(0.703836 0.00179608 0)
(0.692937 0.005268 0)
(0.669863 0.00964708 0)
(0.632097 0.0150535 0)
(0.576521 0.0215652 0)
(0.49988 0.029007 0)
(0.399774 0.036492 0)
(0.277068 0.0419795 0)
(0.135954 0.0427383 0)
(-0.000969812 0.0411891 0)
(-0.152519 0.0374173 0)
(-0.289694 0.0101336 0)
(-0.283966 -0.0367037 0)
(-0.115249 -0.07318 0)
(-0.0286682 0.0274554 0)
(-0.0222497 -0.000583047 0)
(-0.00374354 -0.0169952 0)
(0.0247609 -0.0235642 0)
(0.0577336 -0.0257353 0)
(0.0917983 -0.0256728 0)
(0.125386 -0.0246835 0)
(0.157781 -0.0234288 0)
(0.188793 -0.0222144 0)
(0.21852 -0.0211732 0)
(0.247181 -0.0203493 0)
(0.275024 -0.019741 0)
(0.302288 -0.0193247 0)
(0.329179 -0.0190691 0)
(0.355866 -0.0189406 0)
(0.382477 -0.0189067 0)
(0.409101 -0.0189364 0)
(0.43579 -0.019 0)
(0.462558 -0.0190684 0)
(0.489382 -0.0191127 0)
(0.516204 -0.0191025 0)
(0.542923 -0.0190056 0)
(0.569396 -0.0187864 0)
(0.595431 -0.0184058 0)
(0.620783 -0.01782 0)
(0.645146 -0.0169798 0)
(0.668147 -0.0158298 0)
(0.689332 -0.0143067 0)
(0.708163 -0.0123365 0)
(0.723997 -0.0098226 0)
(0.736088 -0.00663628 0)
(0.743489 -0.00246642 0)
(0.746002 0.0030302 0)
(0.742829 0.0100908 0)
(0.732007 0.0189316 0)
(0.711162 0.0299202 0)
(0.67736 0.0434366 0)
(0.626779 0.0595358 0)
(0.554431 0.0772596 0)
(0.455074 0.0937981 0)
(0.324192 0.103978 0)
(0.172515 0.105338 0)
(0.0104591 0.0996613 0)
(-0.128805 0.0556352 0)
(-0.177684 -0.0376325 0)
(-0.0870259 -0.15201 0)
(-0.0118194 0.0347225 0)
(-0.00281702 -0.00721496 0)
(0.0167973 -0.0280698 0)
(0.0441396 -0.0373209 0)
(0.0753113 -0.0405708 0)
(0.107662 -0.0406932 0)
(0.139831 -0.0394176 0)
(0.171168 -0.0376839 0)
(0.201465 -0.0359614 0)
(0.230765 -0.0344656 0)
(0.259224 -0.0332745 0)
(0.287035 -0.0323937 0)
(0.314388 -0.0317934 0)
(0.341452 -0.0314289 0)
(0.368364 -0.0312511 0)
(0.395227 -0.0312111 0)
(0.422111 -0.0312616 0)
(0.449051 -0.0313571 0)
(0.47605 -0.031453 0)
(0.503077 -0.0315039 0)
(0.530065 -0.0314627 0)
(0.556911 -0.0312787 0)
(0.583471 -0.0308962 0)
(0.609556 -0.0302534 0)
(0.634924 -0.0292812 0)
(0.659279 -0.0279016 0)
(0.682258 -0.0260268 0)
(0.703427 -0.0235567 0)
(0.722271 -0.020375 0)
(0.738181 -0.0163408 0)
(0.750458 -0.0112755 0)
(0.758257 -0.0049468 0)
(0.760845 0.00300307 0)
(0.757416 0.0130139 0)
(0.746786 0.0255575 0)
(0.727482 0.0412008 0)
(0.697792 0.0605759 0)
(0.655723 0.0840807 0)
(0.598697 0.111162 0)
(0.523308 0.139129 0)
(0.424369 0.161593 0)
(0.301344 0.17143 0)
(0.16443 0.162568 0)
(0.0410615 0.105169 0)
(-0.064002 -0.0206056 0)
(-0.0327335 -0.202702 0)
(0.0007766 0.0343955 0)
(0.0117625 -0.013822 0)
(0.0327608 -0.0392301 0)
(0.0597131 -0.0508864 0)
(0.0897016 -0.0551293 0)
(0.120721 -0.0554579 0)
(0.151676 -0.0539732 0)
(0.182028 -0.0518534 0)
(0.211592 -0.0497107 0)
(0.240386 -0.0478345 0)
(0.268526 -0.0463351 0)
(0.296164 -0.045226 0)
(0.323452 -0.0444725 0)
(0.350524 -0.0440187 0)
(0.377493 -0.0438018 0)
(0.404438 -0.0437581 0)
(0.431414 -0.0438258 0)
(0.458441 -0.0439448 0)
(0.485514 -0.0440555 0)
(0.512593 -0.0440975 0)
(0.539609 -0.0440073 0)
(0.566457 -0.0437165 0)
(0.592991 -0.0431502 0)
(0.619024 -0.0422246 0)
(0.644322 -0.0408461 0)
(0.668595 -0.0389092 0)
(0.691493 -0.0362949 0)
(0.712596 -0.0328683 0)
(0.73141 -0.028474 0)
(0.747357 -0.0229288 0)
(0.759772 -0.0160102 0)
(0.767881 -0.00744673 0)
(0.770876 0.00314254 0)
(0.767911 0.0162411 0)
(0.758 0.0324098 0)
(0.740036 0.0522967 0)
(0.712861 0.0765961 0)
(0.675356 0.105805 0)
(0.626359 0.139613 0)
(0.564426 0.175752 0)
(0.486606 0.208047 0)
(0.389864 0.2268 0)
(0.276499 0.219169 0)
(0.164521 0.157848 0)
(0.0404174 0.0181321 0)
(0.0229166 -0.206881 0)
(0.00720691 0.0289309 0)
(0.0220225 -0.0221413 0)
(0.0451686 -0.050848 0)
(0.0724587 -0.0643541 0)
(0.101858 -0.0693862 0)
(0.131952 -0.0698893 0)
(0.161944 -0.0682496 0)
(0.19145 -0.0658309 0)
(0.220341 -0.0633586 0)
(0.248639 -0.0611831 0)
(0.276438 -0.0594416 0)
(0.30386 -0.0581551 0)
(0.331026 -0.0572854 0)
(0.358045 -0.0567677 0)
(0.385004 -0.0565272 0)
(0.411966 -0.0564877 0)
(0.438969 -0.0565742 0)
(0.466023 -0.0567134 0)
(0.493114 -0.0568321 0)
(0.520199 -0.0568555 0)
(0.547202 -0.0567047 0)
(0.574019 -0.0562947 0)
(0.600505 -0.0555315 0)
(0.626477 -0.0543106 0)
(0.651705 -0.0525146 0)
(0.675907 -0.0500116 0)
(0.698743 -0.046653 0)
(0.719811 -0.0422708 0)
(0.738635 -0.0366734 0)
(0.754663 -0.0296384 0)
(0.767263 -0.0209026 0)
(0.775715 -0.0101541 0)
(0.779232 0.00301216 0)
(0.776995 0.0191074 0)
(0.768127 0.0387276 0)
(0.751736 0.0625344 0)
(0.72698 0.0911909 0)
(0.693175 0.12514 0)
(0.6498 0.164079 0)
(0.596342 0.205969 0)
(0.531334 0.245202 0)
(0.452087 0.271546 0)
(0.356481 0.268918 0)
(0.251917 0.209813 0)
(0.122841 0.0659675 0)
(0.0653975 -0.176149 0)
(0.00965172 0.0209247 0)
(0.0287351 -0.0323456 0)
(0.054544 -0.0631563 0)
(0.0827231 -0.0778617 0)
(0.112017 -0.0833745 0)
(0.141544 -0.0839426 0)
(0.17082 -0.0821501 0)
(0.199637 -0.0794881 0)
(0.227947 -0.0767595 0)
(0.255795 -0.0743568 0)
(0.283268 -0.0724356 0)
(0.310469 -0.0710216 0)
(0.337497 -0.0700732 0)
(0.364437 -0.0695177 0)
(0.391357 -0.0692707 0)
(0.418305 -0.0692449 0)
(0.445305 -0.0693542 0)
(0.472359 -0.0695132 0)
(0.499446 -0.0696364 0)
(0.526517 -0.0696357 0)
(0.553498 -0.0694181 0)
(0.58028 -0.0688822 0)
(0.606723 -0.0679165 0)
(0.632646 -0.0663964 0)
(0.657827 -0.064182 0)
(0.68199 -0.0611161 0)
(0.704809 -0.057022 0)
(0.725893 -0.0517006 0)
(0.744786 -0.0449264 0)
(0.760962 -0.0364414 0)
(0.77382 -0.0259458 0)
(0.782684 -0.0130911 0)
(0.786813 0.00255204 0)
(0.78544 0.0215084 0)
(0.777779 0.0443782 0)
(0.763082 0.071802 0)
(0.740702 0.104378 0)
(0.71018 0.142454 0)
(0.671262 0.185666 0)
(0.623756 0.23209 0)
(0.566807 0.276644 0)
(0.498196 0.309459 0)
(0.414011 0.313553 0)
(0.31433 0.261692 0)
(0.184206 0.123104 0)
(0.0959869 -0.12539 0)
(0.0104149 0.0115493 0)
(0.0330173 -0.0442549 0)
(0.0614678 -0.0763312 0)
(0.0908139 -0.0916169 0)
(0.120323 -0.0972632 0)
(0.149559 -0.0977369 0)
(0.178331 -0.0957488 0)
(0.20661 -0.0928633 0)
(0.234439 -0.0899258 0)
(0.261898 -0.0873496 0)
(0.28908 -0.0852988 0)
(0.316075 -0.0837987 0)
(0.342965 -0.0828034 0)
(0.369819 -0.0822331 0)
(0.396689 -0.0819948 0)
(0.423609 -0.0819918 0)
(0.450593 -0.0821278 0)
(0.477635 -0.0823073 0)
(0.504709 -0.0824333 0)
(0.531764 -0.0824056 0)
(0.558722 -0.0821177 0)
(0.585477 -0.0814532 0)
(0.611891 -0.0802837 0)
(0.637788 -0.0784655 0)
(0.662951 -0.0758373 0)
(0.687115 -0.0722178 0)
(0.709964 -0.0674034 0)
(0.731122 -0.0611657 0)
(0.750152 -0.0532478 0)
(0.766549 -0.0433588 0)
(0.779743 -0.0311666 0)
(0.789099 -0.016291 0)
(0.793926 0.00171807 0)
(0.793518 0.0233907 0)
(0.787167 0.0493155 0)
(0.774232 0.0800949 0)
(0.754185 0.116256 0)
(0.726677 0.158051 0)
(0.691522 0.205063 0)
(0.648546 0.25547 0)
(0.596995 0.30467 0)
(0.53477 0.343477 0)
(0.457244 0.355249 0)
(0.360089 0.313661 0)
(0.229327 0.186427 0)
(0.11752 -0.0579986 0)
(0.0106109 0.00139151 0)
(0.035803 -0.0575577 0)
(0.0665345 -0.0903753 0)
(0.0970663 -0.105726 0)
(0.126942 -0.111176 0)
(0.15606 -0.111383 0)
(0.184487 -0.109133 0)
(0.212355 -0.106021 0)
(0.239799 -0.102902 0)
(0.266935 -0.100191 0)
(0.293866 -0.0980483 0)
(0.320679 -0.0964953 0)
(0.347444 -0.0954794 0)
(0.374216 -0.0949135 0)
(0.401035 -0.0946968 0)
(0.427923 -0.0947245 0)
(0.454886 -0.0948915 0)
(0.481914 -0.0950927 0)
(0.508974 -0.0952212 0)
(0.536013 -0.0951653 0)
(0.562955 -0.0948061 0)
(0.589695 -0.094013 0)
(0.616098 -0.0926416 0)
(0.641993 -0.0905301 0)
(0.667172 -0.0874965 0)
(0.691378 -0.0833368 0)
(0.714306 -0.0778216 0)
(0.735596 -0.0706948 0)
(0.754827 -0.0616698 0)
(0.771518 -0.050426 0)
(0.785127 -0.0366023 0)
(0.795058 -0.0197923 0)
(0.800667 0.000469729 0)
(0.801309 0.0247137 0)
(0.796347 0.053509 0)
(0.78522 0.0874152 0)
(0.767476 0.126893 0)
(0.742803 0.172123 0)
(0.710987 0.222667 0)
(0.671731 0.276833 0)
(0.624137 0.330489 0)
(0.565954 0.375264 0)
(0.492154 0.395486 0)
(0.395701 0.366207 0)
(0.263377 0.254636 0)
(0.132782 0.0231484 0)
(0.0106465 -0.00925289 0)
(0.0377173 -0.0719203 0)
(0.0702557 -0.105171 0)
(0.101813 -0.120191 0)
(0.132059 -0.125164 0)
(0.161137 -0.124945 0)
(0.189319 -0.122365 0)
(0.216872 -0.119012 0)
(0.244008 -0.115727 0)
(0.270881 -0.112908 0)
(0.297606 -0.110703 0)
(0.324265 -0.109124 0)
(0.350922 -0.108109 0)
(0.377621 -0.107563 0)
(0.404392 -0.107379 0)
(0.43125 -0.107444 0)
(0.458194 -0.107646 0)
(0.485208 -0.107871 0)
(0.512257 -0.108003 0)
(0.539287 -0.107919 0)
(0.566222 -0.107489 0)
(0.59296 -0.10657 0)
(0.61937 -0.105002 0)
(0.645289 -0.102605 0)
(0.670514 -0.0991778 0)
(0.694801 -0.0944949 0)
(0.717855 -0.0883022 0)
(0.739332 -0.080317 0)
(0.758828 -0.0702252 0)
(0.775882 -0.0576785 0)
(0.789982 -0.0422904 0)
(0.800565 -0.0236336 0)
(0.807036 -0.00123133 0)
(0.808806 0.0254416 0)
(0.8053 0.0569327 0)
(0.79602 0.0937598 0)
(0.780564 0.13633 0)
(0.758624 0.184783 0)
(0.729914 0.238696 0)
(0.693965 0.296553 0)
(0.649643 0.354705 0)
(0.594399 0.405669 0)
(0.522845 0.435084 0)
(0.426057 0.419749 0)
(0.291206 0.32708 0)
(0.145329 0.11513 0)
(0.010675 -0.0202444 0)
(0.03914 -0.0870655 0)
(0.0730206 -0.120554 0)
(0.105348 -0.134947 0)
(0.135865 -0.139223 0)
(0.1649 -0.13845 0)
(0.19288 -0.13548 0)
(0.220179 -0.131873 0)
(0.247067 -0.128432 0)
(0.273726 -0.125525 0)
(0.300281 -0.123281 0)
(0.326813 -0.121696 0)
(0.35338 -0.120698 0)
(0.380019 -0.120186 0)
(0.40675 -0.120044 0)
(0.433583 -0.120153 0)
(0.460511 -0.120394 0)
(0.487515 -0.120644 0)
(0.514557 -0.120781 0)
(0.541585 -0.120671 0)
(0.568522 -0.120173 0)
(0.595271 -0.119132 0)
(0.621706 -0.117374 0)
(0.64767 -0.114702 0)
(0.67297 -0.110897 0)
(0.697372 -0.105712 0)
(0.720596 -0.0988685 0)
(0.742309 -0.0900595 0)
(0.762127 -0.0789444 0)
(0.77961 -0.0651495 0)
(0.79427 -0.0482665 0)
(0.805579 -0.027851 0)
(0.812985 -0.00342051 0)
(0.815951 0.0255426 0)
(0.813961 0.0595626 0)
(0.806569 0.0991208 0)
(0.793408 0.144586 0)
(0.774162 0.196083 0)
(0.748469 0.25325 0)
(0.715693 0.314786 0)
(0.674457 0.377558 0)
(0.621868 0.435033 0)
(0.552156 0.474385 0)
(0.454807 0.474488 0)
(0.316979 0.403328 0)
(0.157188 0.215641 0)
(0.0107617 -0.0315189 0)
(0.0402907 -0.102783 0)
(0.0751005 -0.136353 0)
(0.107906 -0.149896 0)
(0.138533 -0.153312 0)
(0.167464 -0.151892 0)
(0.195242 -0.148494 0)
(0.222315 -0.144625 0)
(0.248992 -0.141037 0)
(0.275473 -0.13806 0)
(0.301888 -0.135795 0)
(0.328317 -0.134221 0)
(0.35481 -0.133256 0)
(0.381399 -0.132788 0)
(0.408099 -0.132695 0)
(0.434912 -0.132853 0)
(0.461829 -0.133136 0)
(0.488827 -0.133415 0)
(0.515868 -0.133558 0)
(0.542898 -0.133424 0)
(0.569846 -0.132863 0)
(0.596617 -0.131706 0)
(0.623091 -0.129767 0)
(0.649119 -0.126833 0)
(0.674517 -0.122668 0)
(0.699064 -0.117004 0)
(0.722493 -0.109541 0)
(0.744487 -0.099946 0)
(0.764678 -0.0878545 0)
(0.782646 -0.0728693 0)
(0.797928 -0.0545626 0)
(0.810029 -0.0324777 0)
(0.818437 -0.00612988 0)
(0.822661 0.0249875 0)
(0.822241 0.0613758 0)
(0.816778 0.103485 0)
(0.805937 0.15166 0)
(0.789398 0.206034 0)
(0.766743 0.266341 0)
(0.737206 0.331534 0)
(0.69922 0.399035 0)
(0.649576 0.463329 0)
(0.582134 0.513323 0)
(0.484817 0.530321 0)
(0.344512 0.483235 0)
(0.170587 0.3253 0)
(0.0109386 -0.0430558 0)
(0.0412934 -0.11891 0)
(0.0766726 -0.152408 0)
(0.10966 -0.164925 0)
(0.14021 -0.167369 0)
(0.168941 -0.165248 0)
(0.196485 -0.161404 0)
(0.223334 -0.157278 0)
(0.249816 -0.153556 0)
(0.276142 -0.150526 0)
(0.302437 -0.148257 0)
(0.328779 -0.146709 0)
(0.355212 -0.145787 0)
(0.381761 -0.145372 0)
(0.408436 -0.145335 0)
(0.435235 -0.145547 0)
(0.462144 -0.145874 0)
(0.489139 -0.146184 0)
(0.516182 -0.146336 0)
(0.54322 -0.146182 0)
(0.570184 -0.145562 0)
(0.596984 -0.144296 0)
(0.623506 -0.142187 0)
(0.649611 -0.139007 0)
(0.675126 -0.134502 0)
(0.699841 -0.128386 0)
(0.723504 -0.120336 0)
(0.745814 -0.109997 0)
(0.76642 -0.0969788 0)
(0.784922 -0.0808637 0)
(0.80088 -0.0612068 0)
(0.813828 -0.0375422 0)
(0.823293 -0.00938749 0)
(0.82883 0.0237506 0)
(0.830028 0.0623502 0)
(0.826535 0.106835 0)
(0.818052 0.157535 0)
(0.804272 0.214613 0)
(0.784754 0.277919 0)
(0.758667 0.346691 0)
(0.72434 0.418938 0)
(0.678357 0.490242 0)
(0.614308 0.551448 0)
(0.518494 0.586736 0)
(0.377597 0.566632 0)
(0.188088 0.446121 0)
(0.0112294 -0.0548626 0)
(0.0422146 -0.135314 0)
(0.0778455 -0.168568 0)
(0.110735 -0.179919 0)
(0.141013 -0.181323 0)
(0.169434 -0.178483 0)
(0.196691 -0.174199 0)
(0.223298 -0.169831 0)
(0.249588 -0.165995 0)
(0.275765 -0.16293 0)
(0.301952 -0.160673 0)
(0.328217 -0.159164 0)
(0.354599 -0.158296 0)
(0.381114 -0.157942 0)
(0.407769 -0.157967 0)
(0.434556 -0.158236 0)
(0.46146 -0.158611 0)
(0.488454 -0.158953 0)
(0.515499 -0.159116 0)
(0.542547 -0.158945 0)
(0.569528 -0.158271 0)
(0.59636 -0.156906 0)
(0.622936 -0.154638 0)
(0.649124 -0.151228 0)
(0.674766 -0.146407 0)
(0.699663 -0.139867 0)
(0.72358 -0.131267 0)
(0.746232 -0.120228 0)
(0.767286 -0.106336 0)
(0.78636 -0.0891544 0)
(0.803037 -0.0682224 0)
(0.816879 -0.0430688 0)
(0.827447 -0.0132169 0)
(0.834338 0.0218101 0)
(0.837193 0.0624661 0)
(0.835709 0.109151 0)
(0.829628 0.162187 0)
(0.81868 0.221775 0)
(0.802444 0.287891 0)
(0.780108 0.360074 0)
(0.750019 0.436936 0)
(0.70873 0.515221 0)
(0.649813 0.587931 0)
(0.557983 0.642666 0)
(0.420536 0.653028 0)
(0.212941 0.581319 0)
(0.0116624 -0.0669652 0)
(0.0430856 -0.151866 0)
(0.07868 -0.184692 0)
(0.111211 -0.194766 0)
(0.141033 -0.195102 0)
(0.169032 -0.191557 0)
(0.19594 -0.186861 0)
(0.222276 -0.182279 0)
(0.248361 -0.178356 0)
(0.274389 -0.175277 0)
(0.30047 -0.173049 0)
(0.326661 -0.171592 0)
(0.352994 -0.170789 0)
(0.379479 -0.170503 0)
(0.406114 -0.170595 0)
(0.43289 -0.170924 0)
(0.459787 -0.171349 0)
(0.486778 -0.171726 0)
(0.513825 -0.171903 0)
(0.540879 -0.171719 0)
(0.567875 -0.170997 0)
(0.594736 -0.16954 0)
(0.621364 -0.167126 0)
(0.647636 -0.163505 0)
(0.673406 -0.15839 0)
(0.698491 -0.151459 0)
(0.722672 -0.142348 0)
(0.745681 -0.130655 0)
(0.767203 -0.115946 0)
(0.786876 -0.0977617 0)
(0.804303 -0.0756307 0)
(0.819072 -0.0490784 0)
(0.830776 -0.0176374 0)
(0.839052 0.0191486 0)
(0.843593 0.0617078 0)
(0.844145 0.110416 0)
(0.840507 0.165589 0)
(0.832467 0.227466 0)
(0.819678 0.296148 0)
(0.801431 0.371462 0)
(0.776241 0.452616 0)
(0.740895 0.537535 0)
(0.689365 0.621565 0)
(0.605199 0.696293 0)
(0.478478 0.741475 0)
(0.249547 0.737932 0)
(0.0122712 -0.0793808 0)
(0.0439147 -0.168453 0)
(0.0792014 -0.200656 0)
(0.111141 -0.209369 0)
(0.14034 -0.20864 0)
(0.167812 -0.204428 0)
(0.19431 -0.199365 0)
(0.220339 -0.19461 0)
(0.246201 -0.19063 0)
(0.272069 -0.187563 0)
(0.298037 -0.185383 0)
(0.324152 -0.183994 0)
(0.350433 -0.183265 0)
(0.376885 -0.183055 0)
(0.403498 -0.183218 0)
(0.430259 -0.183611 0)
(0.457146 -0.184088 0)
(0.484129 -0.184502 0)
(0.51117 -0.184695 0)
(0.538223 -0.184501 0)
(0.565226 -0.183737 0)
(0.592108 -0.182197 0)
(0.618777 -0.179651 0)
(0.645124 -0.175837 0)
(0.671014 -0.170454 0)
(0.696281 -0.163163 0)
(0.720723 -0.153582 0)
(0.744093 -0.141285 0)
(0.766093 -0.125816 0)
(0.786379 -0.106697 0)
(0.804574 -0.0834439 0)
(0.820288 -0.0555831 0)
(0.833147 -0.0226597 0)
(0.842825 0.0157578 0)
(0.849064 0.0600684 0)
(0.851666 0.110621 0)
(0.850498 0.167722 0)
(0.84543 0.231639 0)
(0.836236 0.302581 0)
(0.822399 0.380627 0)
(0.802764 0.465527 0)
(0.774678 0.556314 0)
(0.733107 0.650717 0)
(0.661636 0.74467 0)
(0.557945 0.830326 0)
(0.305601 0.917967 0)
(0.0130435 -0.0921085 0)
(0.0446821 -0.185035 0)
(0.0794009 -0.21638 0)
(0.110552 -0.223662 0)
(0.138992 -0.221886 0)
(0.16585 -0.217059 0)
(0.191884 -0.211681 0)
(0.217573 -0.206798 0)
(0.24319 -0.202799 0)
(0.268885 -0.19977 0)
(0.294732 -0.197659 0)
(0.320764 -0.196351 0)
(0.346989 -0.195707 0)
(0.373402 -0.195578 0)
(0.399989 -0.195817 0)
(0.42673 -0.196276 0)
(0.453599 -0.196806 0)
(0.480566 -0.197256 0)
(0.507593 -0.197467 0)
(0.534634 -0.197265 0)
(0.561633 -0.196463 0)
(0.588522 -0.194848 0)
(0.615219 -0.192182 0)
(0.641625 -0.188192 0)
(0.667619 -0.182567 0)
(0.693054 -0.174951 0)
(0.717746 -0.164943 0)
(0.741468 -0.152095 0)
(0.763943 -0.135928 0)
(0.784844 -0.115945 0)
(0.803811 -0.0916516 0)
(0.820478 -0.0625765 0)
(0.834496 -0.0282814 0)
(0.845575 0.0116365 0)
(0.853506 0.0575429 0)
(0.858152 0.109754 0)
(0.859454 0.168555 0)
(0.857388 0.234227 0)
(0.851888 0.307055 0)
(0.842703 0.387301 0)
(0.829157 0.475132 0)
(0.809502 0.570465 0)
(0.78037 0.673036 0)
(0.72803 0.782756 0)
(0.660428 0.909222 0)
(0.378314 1.1532 0)
(0.00528096 -1.40688e-05 0)
(-0.0205278 0.00937492 0)
(-0.0624898 0.0101818 0)
(-0.0948326 0.00781906 0)
(-0.117777 0.00488811 0)
(-0.130803 0.0021012 0)
(-0.135167 -4.16377e-05 0)
(-0.132327 -0.00188388 0)
(-0.124385 -0.00314401 0)
(-0.112677 -0.00402432 0)
(-0.0983334 -0.00460254 0)
(-0.0823564 -0.00492017 0)
(-0.0655732 -0.00501741 0)
(-0.048705 -0.0049293 0)
(-0.0323352 -0.00468938 0)
(-0.016922 -0.00433533 0)
(-0.00282151 -0.00390675 0)
(0.0097301 -0.00342265 0)
(0.0206189 -0.00291455 0)
(0.0297836 -0.00240217 0)
(0.0372193 -0.00189899 0)
(0.0429667 -0.00141561 0)
(0.0470959 -0.000959405 0)
(0.049698 -0.000532762 0)
(0.0508751 -0.000132545 0)
(0.0507073 0.000231183 0)
(0.0493358 0.000554565 0)
(0.0468859 0.00083928 0)
(0.0434775 0.00108513 0)
(0.0392335 0.00129367 0)
(0.034271 0.00146964 0)
(0.0287045 0.0016127 0)
(0.0226618 0.00171446 0)
(0.0163281 0.00175288 0)
(0.00995476 0.00168542 0)
(0.0041232 0.00139825 0)
(-0.000572301 0.000659761 0)
(-0.00153066 -0.00055293 0)
(-0.00743128 0.00620089 0)
(-0.0371174 0.0226149 0)
(-0.0772893 0.0233972 0)
(-0.107617 0.0179319 0)
(-0.128176 0.0114886 0)
(-0.139093 0.0054694 0)
(-0.142005 0.000495589 0)
(-0.138678 -0.00339176 0)
(-0.130273 -0.00629074 0)
(-0.11813 -0.00837818 0)
(-0.103379 -0.00977475 0)
(-0.0869895 -0.010576 0)
(-0.0697795 -0.0108752 0)
(-0.052453 -0.0107508 0)
(-0.0355787 -0.0102827 0)
(-0.0196176 -0.0095514 0)
(-0.00492641 -0.00863489 0)
(0.0082438 -0.00759696 0)
(0.0197421 -0.00649756 0)
(0.029489 -0.00537916 0)
(0.037465 -0.00427366 0)
(0.0436981 -0.00320446 0)
(0.0482495 -0.00218785 0)
(0.0512069 -0.00123354 0)
(0.0526759 -0.000344581 0)
(0.0527862 0.000472113 0)
(0.0516438 0.00121203 0)
(0.0493583 0.00187601 0)
(0.0460503 0.00246222 0)
(0.0418459 0.00297037 0)
(0.0368745 0.00340343 0)
(0.0312726 0.00375705 0)
(0.0251917 0.00401183 0)
(0.0188299 0.00412078 0)
(0.0124434 0.00398844 0)
(0.00653226 0.003411 0)
(0.0014293 0.00199263 0)
(-0.000745853 -0.00049383 0)
(-0.0171304 0.0177739 0)
(-0.047844 0.037591 0)
(-0.0843667 0.0372917 0)
(-0.112673 0.028243 0)
(-0.13194 0.0177919 0)
(-0.142214 0.00815422 0)
(-0.144733 0.000155435 0)
(-0.140975 -0.00607985 0)
(-0.132317 -0.0107827 0)
(-0.119992 -0.0141765 0)
(-0.105142 -0.0164439 0)
(-0.0887034 -0.0177469 0)
(-0.0714726 -0.018237 0)
(-0.0541265 -0.0180425 0)
(-0.0372093 -0.0172921 0)
(-0.021169 -0.0161095 0)
(-0.00635285 -0.0146132 0)
(0.00698711 -0.0129086 0)
(0.0186845 -0.0110892 0)
(0.0286479 -0.0092258 0)
(0.0368477 -0.00737364 0)
(0.0433028 -0.00557399 0)
(0.0480674 -0.00385603 0)
(0.0512242 -0.00224001 0)
(0.0528768 -0.000738232 0)
(0.0531446 0.000642013 0)
(0.0521426 0.00189671 0)
(0.0499897 0.00302408 0)
(0.0468094 0.00401962 0)
(0.0427307 0.00488011 0)
(0.0378901 0.00560537 0)
(0.0324361 0.00618638 0)
(0.0265343 0.00659312 0)
(0.0203866 0.00675764 0)
(0.0142352 0.00654781 0)
(0.00847703 0.00570761 0)
(0.00321836 0.00367349 0)
(0.00015551 -0.000132637 0)
(-0.0231931 0.0327498 0)
(-0.0555789 0.0525335 0)
(-0.090164 0.050519 0)
(-0.117189 0.0381108 0)
(-0.135359 0.0238894 0)
(-0.144844 0.0107394 0)
(-0.146749 -0.000173668 0)
(-0.14246 -0.00880772 0)
(-0.133418 -0.0153041 0)
(-0.120839 -0.019983 0)
(-0.105845 -0.0231038 0)
(-0.0893505 -0.0248956 0)
(-0.0721237 -0.0255708 0)
(-0.054813 -0.0253079 0)
(-0.0379378 -0.0242827 0)
(-0.0219262 -0.0226614 0)
(-0.00711133 -0.0206006 0)
(0.00626086 -0.0182426 0)
(0.01802 -0.0157133 0)
(0.0280692 -0.0131128 0)
(0.0363724 -0.0105192 0)
(0.0429427 -0.00799184 0)
(0.0478289 -0.00557339 0)
(0.0511091 -0.00329467 0)
(0.0528837 -0.00117625 0)
(0.0532674 0.000770295 0)
(0.0523799 0.0025396 0)
(0.0503451 0.00412842 0)
(0.0472898 0.00553111 0)
(0.0433456 0.00674119 0)
(0.0386523 0.00775428 0)
(0.0333644 0.00855521 0)
(0.0276534 0.0091038 0)
(0.0217187 0.00931658 0)
(0.0157853 0.00903928 0)
(0.0101711 0.00799754 0)
(0.00494203 0.00557506 0)
(0.00125106 0.000697859 0)
(-0.0268877 0.0499394 0)
(-0.061688 0.0676787 0)
(-0.095733 0.0633528 0)
(-0.12208 0.0475449 0)
(-0.139275 0.0296224 0)
(-0.147842 0.0130121 0)
(-0.14892 -0.000809868 0)
(-0.143916 -0.0117506 0)
(-0.134314 -0.0199852 0)
(-0.121328 -0.0258991 0)
(-0.106069 -0.0298302 0)
(-0.0894249 -0.0320766 0)
(-0.0721405 -0.0329119 0)
(-0.0548332 -0.0325673 0)
(-0.0379965 -0.0312633 0)
(-0.0220351 -0.0292062 0)
(-0.00726412 -0.0265885 0)
(0.00608176 -0.0235865 0)
(0.017836 -0.020356 0)
(0.0279012 -0.0170251 0)
(0.0362391 -0.0136951 0)
(0.0428592 -0.0104433 0)
(0.0478071 -0.00732725 0)
(0.0511574 -0.00438809 0)
(0.0530074 -0.00165432 0)
(0.0534698 0.000857396 0)
(0.0526663 0.00313966 0)
(0.0507242 0.0051875 0)
(0.0477729 0.00699413 0)
(0.0439462 0.0085499 0)
(0.0393857 0.00984522 0)
(0.0342468 0.0108586 0)
(0.0287009 0.0115416 0)
(0.0229402 0.0118002 0)
(0.0171703 0.0114682 0)
(0.011642 0.0102697 0)
(0.00644301 0.00761313 0)
(0.00237156 0.00233463 0)
(-0.0294561 0.0688812 0)
(-0.0672216 0.0834135 0)
(-0.101717 0.0761538 0)
(-0.127839 0.0566495 0)
(-0.144102 0.0349433 0)
(-0.151592 0.0148719 0)
(-0.151607 -0.00182551 0)
(-0.145664 -0.0150105 0)
(-0.135291 -0.0249137 0)
(-0.121717 -0.0319948 0)
(-0.106039 -0.0366752 0)
(-0.089124 -0.0393266 0)
(-0.07169 -0.0402832 0)
(-0.0543235 -0.0398301 0)
(-0.0374898 -0.0382318 0)
(-0.021568 -0.0357328 0)
(-0.00685142 -0.0325589 0)
(0.00644066 -0.0289178 0)
(0.0181512 -0.024993 0)
(0.0281872 -0.0209386 0)
(0.0365116 -0.0168787 0)
(0.0431328 -0.0129082 0)
(0.048095 -0.00909915 0)
(0.051471 -0.00550357 0)
(0.053356 -0.0021577 0)
(0.0538614 0.000916209 0)
(0.0531099 0.00370773 0)
(0.0512308 0.00621013 0)
(0.0483557 0.00841518 0)
(0.0446197 0.0103109 0)
(0.0401647 0.0118825 0)
(0.0351442 0.0131026 0)
(0.0297252 0.0139164 0)
(0.0240882 0.0142238 0)
(0.0184161 0.013855 0)
(0.0128989 0.012542 0)
(0.00761206 0.00974532 0)
(0.00309717 0.0044358 0)
(-0.0318183 0.0894799 0)
(-0.0731402 0.100033 0)
(-0.10874 0.0891958 0)
(-0.13491 0.0655071 0)
(-0.150155 0.0398107 0)
(-0.15634 0.0162242 0)
(-0.155016 -0.00332198 0)
(-0.147874 -0.0186865 0)
(-0.136495 -0.0301773 0)
(-0.122134 -0.0383443 0)
(-0.105869 -0.0436996 0)
(-0.0885468 -0.0466922 0)
(-0.0708579 -0.0477189 0)
(-0.0533556 -0.0471185 0)
(-0.0364752 -0.0451993 0)
(-0.020567 -0.0422424 0)
(-0.00589984 -0.0385053 0)
(0.00732647 -0.034224 0)
(0.0189691 -0.0296082 0)
(0.0289433 -0.0248355 0)
(0.0372165 -0.0200511 0)
(0.0437989 -0.015368 0)
(0.0487349 -0.0108712 0)
(0.0520967 -0.00662382 0)
(0.0539791 -0.0026703 0)
(0.0544927 0.000961527 0)
(0.0537607 0.00425741 0)
(0.0519131 0.00720903 0)
(0.0490829 0.00980674 0)
(0.045406 0.0120365 0)
(0.0410234 0.0138793 0)
(0.0360846 0.0153029 0)
(0.030749 0.0162479 0)
(0.0251829 0.0166121 0)
(0.019545 0.0162294 0)
(0.0139724 0.0148497 0)
(0.00852072 0.0120006 0)
(0.00355837 0.00674104 0)
(-0.0347237 0.111974 0)
(-0.080431 0.11777 0)
(-0.117459 0.10264 0)
(-0.143738 0.074123 0)
(-0.157709 0.0441381 0)
(-0.162267 0.016949 0)
(-0.159279 -0.00542029 0)
(-0.150646 -0.0228874 0)
(-0.13801 -0.0358706 0)
(-0.122648 -0.0450273 0)
(-0.10562 -0.0509686 0)
(-0.0877489 -0.0542253 0)
(-0.0696931 -0.0552583 0)
(-0.0519718 -0.0544602 0)
(-0.0349876 -0.0521829 0)
(-0.0190592 -0.0487426 0)
(-0.00442766 -0.0444271 0)
(0.00872975 -0.0394985 0)
(0.0202887 -0.0341903 0)
(0.0301763 -0.0287019 0)
(0.0383672 -0.0231974 0)
(0.044876 -0.0178064 0)
(0.0497494 -0.0126272 0)
(0.0530606 -0.00773274 0)
(0.0549045 -0.00317646 0)
(0.055392 0.00100823 0)
(0.0546463 0.00480312 0)
(0.0527978 0.00819814 0)
(0.0499796 0.0111828 0)
(0.0463277 0.0137411 0)
(0.0419812 0.015851 0)
(0.0370846 0.0174767 0)
(0.0317879 0.0185567 0)
(0.0262414 0.0189896 0)
(0.0205803 0.0186189 0)
(0.014899 0.0172193 0)
(0.00924139 0.0143944 0)
(0.00386746 0.00932565 0)
(-0.0389326 0.136985 0)
(-0.090214 0.136835 0)
(-0.12859 0.11653 0)
(-0.154767 0.0824038 0)
(-0.167002 0.0477753 0)
(-0.169504 0.0168914 0)
(-0.164473 -0.00826056 0)
(-0.154034 -0.0277333 0)
(-0.139879 -0.0420942 0)
(-0.123298 -0.0521275 0)
(-0.105328 -0.0585508 0)
(-0.0867615 -0.0619806 0)
(-0.0682241 -0.0629435 0)
(-0.0501976 -0.061886 0)
(-0.0330489 -0.0592029 0)
(-0.0170621 -0.0552447 0)
(-0.0024478 -0.0503277 0)
(0.010643 -0.0447386 0)
(0.0221076 -0.0387319 0)
(0.0318885 -0.0325267 0)
(0.0399706 -0.0263044 0)
(0.0463751 -0.0202093 0)
(0.0511528 -0.014352 0)
(0.0543788 -0.00881536 0)
(0.0561496 -0.00366122 0)
(0.056577 0.00107087 0)
(0.0557845 0.0053592 0)
(0.053902 0.00919176 0)
(0.051062 0.0125577 0)
(0.0473996 0.01544 0)
(0.0430516 0.0178141 0)
(0.0381569 0.0196424 0)
(0.0328549 0.020863 0)
(0.02728 0.0213788 0)
(0.0215454 0.0210461 0)
(0.0157133 0.019668 0)
(0.00982291 0.0169228 0)
(0.0040803 0.0120972 0)
(-0.0453731 0.165606 0)
(-0.103847 0.157399 0)
(-0.142885 0.130751 0)
(-0.168397 0.0901356 0)
(-0.178199 0.0505008 0)
(-0.178114 0.0158622 0)
(-0.170624 -0.0119977 0)
(-0.158053 -0.0333502 0)
(-0.142115 -0.0489519 0)
(-0.124098 -0.0597299 0)
(-0.105007 -0.0665155 0)
(-0.0856005 -0.0700133 0)
(-0.0664667 -0.0708172 0)
(-0.048048 -0.0694274 0)
(-0.0306727 -0.0662809 0)
(-0.0145875 -0.0617619 0)
(3.07407e-05 -0.0562129 0)
(0.0130603 -0.0499435 0)
(0.0244234 -0.0432273 0)
(0.0340809 -0.0363006 0)
(0.0420309 -0.0293602 0)
(0.048303 -0.0225635 0)
(0.0529539 -0.0160319 0)
(0.0560622 -0.00985778 0)
(0.0577264 -0.00411044 0)
(0.0580602 0.0011639 0)
(0.0571874 0.00594007 0)
(0.0552376 0.0102046 0)
(0.0523416 0.0139467 0)
(0.0486328 0.0171487 0)
(0.0442453 0.0197851 0)
(0.0393121 0.0218177 0)
(0.0339622 0.0231862 0)
(0.0283146 0.0237997 0)
(0.0224627 0.0235294 0)
(0.016446 0.0222074 0)
(0.0103057 0.0195792 0)
(0.00423107 0.0150114 0)
(-0.0552898 0.199528 0)
(-0.123024 0.179519 0)
(-0.161088 0.144961 0)
(-0.184914 0.0969587 0)
(-0.191346 0.0520192 0)
(-0.18806 0.0136447 0)
(-0.177688 -0.0167932 0)
(-0.16267 -0.0398637 0)
(-0.1447 -0.0565451 0)
(-0.12504 -0.067918 0)
(-0.104656 -0.0749308 0)
(-0.0842694 -0.0783778 0)
(-0.0644273 -0.0789215 0)
(-0.0455307 -0.0771159 0)
(-0.027867 -0.0734391 0)
(-0.0116426 -0.0683076 0)
(0.00300196 -0.0620894 0)
(0.0159776 -0.0551139 0)
(0.0272341 -0.0476723 0)
(0.0367537 -0.0400157 0)
(0.0445499 -0.0323542 0)
(0.0506637 -0.0248568 0)
(0.0551588 -0.0176539 0)
(0.0581183 -0.0108463 0)
(0.0596434 -0.00451022 0)
(0.0598504 0.00130152 0)
(0.058864 0.00656006 0)
(0.0568132 0.0112515 0)
(0.0538271 0.0153648 0)
(0.0500361 0.0188832 0)
(0.0455714 0.0217807 0)
(0.0405599 0.02402 0)
(0.0351213 0.0255441 0)
(0.0293602 0.0262701 0)
(0.0233531 0.0260843 0)
(0.0171242 0.0248463 0)
(0.0107219 0.0223588 0)
(0.00434379 0.0180425 0)
(-0.0704233 0.241294 0)
(-0.149839 0.202977 0)
(-0.18382 0.15847 0)
(-0.204366 0.102344 0)
(-0.206286 0.0519714 0)
(-0.199166 0.0100118 0)
(-0.185528 -0.0228004 0)
(-0.167796 -0.0473887 0)
(-0.14758 -0.0649669 0)
(-0.126095 -0.07677 0)
(-0.104261 -0.0838618 0)
(-0.0827615 -0.0871272 0)
(-0.0621041 -0.0872978 0)
(-0.0426471 -0.084982 0)
(-0.0246348 -0.0806987 0)
(-0.00823134 -0.0748955 0)
(0.00646228 -0.0679638 0)
(0.0193923 -0.0602516 0)
(0.0305383 -0.0520639 0)
(0.0399065 -0.0436649 0)
(0.0475289 -0.0352767 0)
(0.0534598 -0.0270775 0)
(0.0577715 -0.0192053 0)
(0.0605523 -0.0117675 0)
(0.0619068 -0.00484706 0)
(0.0619542 0.00149743 0)
(0.060821 0.00723341 0)
(0.0586359 0.0123468 0)
(0.0555255 0.0168274 0)
(0.051617 0.0206591 0)
(0.0470377 0.0238171 0)
(0.0419094 0.0262658 0)
(0.0363431 0.0279534 0)
(0.0304309 0.0288055 0)
(0.0242352 0.0287242 0)
(0.0177709 0.027592 0)
(0.0110968 0.0252584 0)
(0.0044346 0.0211746 0)
(-0.0932716 0.294228 0)
(-0.186751 0.227135 0)
(-0.211369 0.170111 0)
(-0.226393 0.105591 0)
(-0.222573 0.0499678 0)
(-0.211067 0.00475656 0)
(-0.193897 -0.0301431 0)
(-0.173276 -0.0560156 0)
(-0.150664 -0.0742941 0)
(-0.127209 -0.0863539 0)
(-0.10379 -0.0933684 0)
(-0.0810595 -0.0963116 0)
(-0.059488 -0.0959857 0)
(-0.039393 -0.0930552 0)
(-0.0209751 -0.0880802 0)
(-0.00435426 -0.0815383 0)
(0.0104105 -0.0738431 0)
(0.0233035 -0.0653579 0)
(0.0343357 -0.0563994 0)
(0.0435398 -0.0472421 0)
(0.0509689 -0.0381184 0)
(0.0566929 -0.0292143 0)
(0.0607944 -0.0206739 0)
(0.0633677 -0.0126088 0)
(0.064521 -0.0051079 0)
(0.0643766 0.00176494 0)
(0.0630638 0.00797396 0)
(0.0607111 0.0135049 0)
(0.0574426 0.0183489 0)
(0.0533817 0.0224918 0)
(0.0486517 0.02591 0)
(0.0433693 0.0285713 0)
(0.037638 0.0304296 0)
(0.0315399 0.0314204 0)
(0.0251257 0.0314603 0)